LAMMPS data file via write_data, version 2 Aug 2023, timestep = 60000, units = real

6420 atoms
9 atom types
6240 bonds
7 bond types
11100 angles
8 angle types
12600 dihedrals
4 dihedral types

-19.63210006445822 19.63210006445822 xlo xhi
-19.63210006445822 19.63210006445822 ylo yhi
-19.63210006445822 19.63210006445822 zlo zhi

Masses

1 15.9994
2 12.011
3 1.008
4 1.008
5 12.011
6 15.9994
7 15.9994
8 15.9994
9 1.008

Pair Coeffs # lj/cut/coul/cut

1 0.2526 2.8492
2 0.0663 3.5812
3 0.0283 2.3734
4 0 0
5 0.245 2.8114
6 0.1195 3.1
7 0.1195 3.1
8 0.155 3.165
9 0 0

Bond Coeffs # harmonic

1 1109.29 1.12
2 399.792 1.43
3 299.844 1.52
4 400.034 1.53
5 310.707 1.41
6 179.254 0.971
7 1059.16 1.012

Angle Coeffs # harmonic

1 47.694 109.5
2 55.1271 109.5
3 47.635 109.6
4 55.1139 111
5 54.9931 110.3
6 180.46 109
7 30.1731 110
8 75.9 113.24

Dihedral Coeffs # harmonic

1 0.3011 1 3
2 1.4149 1 3
3 0.239 -1 3
4 0 1 1

Atoms # full

362 4 2 -0.023 -17.69438274830572 -15.21326501938508 -16.647047889550706 0 0 0
363 4 3 0.083 -16.640163294119276 -14.877105496449163 -16.790056178258816 0 0 0
79 1 1 -0.283 -16.42492882843215 -10.351033108796468 -12.273298925452622 0 0 0
76 1 2 -0.023 -15.298022627100796 -9.602267531876246 -11.71276597051246 0 0 0
358 4 2 -0.023 -17.38300727193722 -16.357998468276914 -14.62191319429647 0 0 0
86 1 1 -0.283 -16.86948549947576 -12.509690658743782 -15.279820926939257 0 0 0
85 1 3 0.083 -17.75149436079788 -12.2240000591409 -13.391159415664967 0 0 0
83 1 2 -0.023 -17.274841158269005 -11.638520068282816 -14.2189153064543 0 0 0
84 1 3 0.083 -18.0630476078275 -10.955576628204344 -14.622865157693957 0 0 0
1998 20 1 -0.283 -13.656640280783549 -15.359481644798503 -13.098610484250944 0 1 0
2003 20 3 0.083 -11.792039153054077 -13.983317854598805 -12.985540874586707 0 1 0
73 1 2 -0.023 -15.549085733423308 -9.072763767008063 -10.31787802783535 0 0 0
72 1 1 -0.283 -14.344335750141802 -8.303758406334664 -9.961323315728205 0 0 0
355 4 2 -0.023 -18.351355499870326 -17.267283140645155 -13.937930436947823 0 0 0
1995 20 2 -0.023 -14.25458368483421 -15.42562775647599 -11.780295516928334 0 1 0
1992 20 2 -0.023 -15.121218934481876 -16.741274160271796 -11.652712627802785 0 1 0
1938 20 3 0.083 -15.441118844026796 -17.456582737003632 -17.71893931669385 0 1 0
2002 20 2 -0.023 -12.542362851731209 -13.28985109931358 -13.445829617281259 0 1 0
2001 20 3 0.082 -13.818175480629039 -14.478967657283183 -14.845606653739305 0 1 0
1999 20 2 -0.023 -13.73495964338067 -14.134132006250587 -13.789549797859383 0 1 0
1937 20 3 0.083 -14.844767912229855 -16.07591134017766 -16.700448094378224 0 1 0
1936 20 2 -0.023 -14.569212576462135 -17.0753172576691 -17.132330500530497 0 1 0
1939 20 2 -0.023 -13.469189093344239 -17.01404748936393 -18.154623269071536 0 1 0
1940 20 3 0.082 -13.012188856341357 -18.031975107691096 -18.063287855300633 0 1 0
2004 20 3 0.083 -12.868443951943608 -12.547338678561172 -12.692870235970243 0 1 0
2005 20 1 -0.283 -12.092935317877645 -12.819814027834429 -14.696508399567936 0 1 0
2006 20 2 -0.023 -10.843756511217919 -12.153107092778253 -14.666802586762216 0 1 0
2011 20 3 0.08400000000000001 -11.391763763948086 -11.556248291084136 -16.761911550589808 0 1 0
1932 20 2 -0.023 -15.163838395073828 -19.003954402654394 -15.663831690944892 0 1 0
1994 20 3 0.082 -14.918535884136961 -17.497012690254188 -12.44644197868604 0 1 0
3605 36 3 0.082 -18.073452641755022 -11.729406266488624 -19.507054084363777 1 0 1
1935 20 1 -0.283 -14.241671636373916 -18.001981967392734 -16.15642138765835 0 1 0
2009 20 2 -0.021 -10.61103148788559 -11.403709468218706 -15.976054563938256 0 1 0
1934 20 3 0.082 -16.069248727942554 -19.13442039608619 -16.307151715398163 0 1 0
2000 20 3 0.082 -14.68470062892047 -13.603576258839482 -13.554758338764103 0 1 0
80 1 2 -0.023 -16.127662486407655 -10.78581113075143 -13.633223919973375 0 0 0
1997 20 3 0.082 -14.872043500960272 -14.507410485384025 -11.67666353136405 0 1 0
357 4 3 0.083 -17.831101040098897 -18.247912346320614 -13.725748775502494 0 0 0
359 4 3 0.083 -16.295626801499914 -16.650949801056402 -14.510787786493168 0 0 0
75 1 3 0.082 -15.736485726840103 -9.86529846858192 -9.550902885305135 0 0 0
361 4 1 -0.285 -17.80263557536413 -16.39004565076856 -15.954002341846182 0 0 0
335 4 3 0.082 -15.676832086146518 -19.298885286203774 -5.8677043575394485 0 0 0
365 4 2 -0.023 -18.094459822477422 -15.564446179646712 -18.055875024641438 0 0 0
3874 39 3 0.082 -19.419921005471146 -4.163472703778346 -1.3078569564071252 1 0 0
368 4 1 -0.284 -18.169300159168213 -14.380968175806146 -18.884151246131218 0 0 0
2007 20 3 0.082 -10.031539163545727 -12.931128694748796 -14.618872950881212 0 1 0
2010 20 3 0.08400000000000001 -10.754855487639881 -10.311056105068445 -15.72234707192958 0 1 0
89 1 3 0.082 -17.52022011143655 -12.58657108851355 -17.244062238705606 0 0 0
1993 20 3 0.082 -16.206263136386717 -16.48714107276255 -11.752416277839178 0 1 0
364 4 3 0.083 -18.332284969178467 -14.42027233693262 -16.18912058116951 0 0 0
87 1 2 -0.023 -16.778379713097582 -12.039956862692119 -16.603407965328216 0 0 0
356 4 3 0.083 -19.27693835977944 -17.27349543769802 -14.580774485811697 0 0 0
360 4 3 0.083 -17.451751461759404 -15.338983354423402 -14.162687738212316 0 0 0
1991 20 1 -0.283 -14.820363285070567 -17.274641710562324 -10.332272969167256 0 1 0
1996 20 3 0.082 -13.448916299270392 -15.377987222812234 -11.004734972439179 0 1 0
306 4 5 -0.019 -18.78073337594304 -9.39874894608583 -7.86580137856053 0 0 0
734 8 2 -0.023 -1.097430985525623 -8.714766696059456 -3.0626537351220655 0 0 0
2008 20 3 0.082 -10.881977823107576 -11.434406439381593 -13.80292401934078 0 1 0
91 1 3 0.08400000000000001 -14.998557263105251 -13.322520169179004 -16.754266912393916 0 0 0
90 1 2 -0.021 -15.341289205384417 -12.340027044641815 -17.16771366395089 0 0 0
4512 45 3 0.082 -11.603192712261372 -18.171279700224783 -14.932027138715831 0 1 0
81 1 3 0.082 -15.149437549567283 -11.361121174335379 -13.631584354346357 0 0 0
78 1 3 0.082 -14.99216059564144 -8.763296313491342 -12.403298049718094 0 0 0
92 1 3 0.08400000000000001 -14.647416853100161 -11.516644239576703 -16.817102140837033 0 0 0
4507 45 3 0.082 -11.470415004302897 -16.617624984465806 -13.282784486138336 0 1 0
4517 45 2 -0.023 -9.420839670632434 -18.39507667814147 -18.814406952042887 0 1 0
4511 45 3 0.082 -11.39439962062823 -16.64287430351736 -15.919018097847822 0 1 0
4510 45 2 -0.023 -10.856135443283398 -17.503528220117445 -15.459919861753633 0 1 0
4502 45 1 -0.285 -10.531567107415905 -15.640332762298282 -11.398092320928724 0 1 0
4506 45 2 -0.023 -10.364651447283372 -16.810552091678538 -13.302028964269212 0 1 0
4508 45 3 0.082 -10.23220617103571 -17.87022938518908 -12.981801663488907 0 1 0
88 1 3 0.082 -17.017199754962608 -10.942142811188345 -16.699183923785192 0 0 0
1941 20 3 0.082 -12.671327881050289 -16.272536806722737 -17.8959816756569 0 1 0
3376 34 3 0.083 -0.5975960393706394 -12.567749844372912 -10.664401050831923 0 0 0
2014 20 3 0.079 -10.316803460064712 -13.51108957466754 -17.062118441857134 0 1 0
4514 45 3 0.082 -10.263765990889247 -19.295237254922384 -16.64607703315026 0 1 0
354 4 1 -0.276 -18.649332033440306 -16.80474121199895 -12.567258694869214 0 0 0
77 1 3 0.082 -14.409969291823659 -10.27007576593009 -11.644095173791449 0 0 0
3607 36 1 -0.283 -19.47242494680363 -10.867116766636162 -18.17650121374774 1 0 1
3561 36 3 0.082 -12.634484376589812 -9.701750520786538 -16.720694135754638 1 0 1
561 6 3 0.083 -7.332617598510554 -7.504479605309454 -19.267639912958447 0 0 1
36 1 3 0.082 -17.819390603705365 -12.056946713624033 -9.599452259562575 0 0 0
99 1 3 0.093 -13.149530319633683 -13.606078363835682 -17.45513993398083 0 0 0
2430 25 2 -0.063 -16.402543462867257 -18.856398664370616 -0.4374601283887287 0 1 0
4498 45 3 0.083 -11.497528930442323 -15.293898418948812 -9.141589608399485 0 1 0
474 5 3 0.082 -3.5740232622764374 -0.3967302284124443 -10.990453464587633 0 0 0
552 6 3 0.083 -2.9256343923241737 -10.054370452328014 -18.861007764453 0 0 1
6129 83 9 0.41 -18.93894472700506 -17.985715435849727 -4.861892328203707 0 1 0
3564 36 3 0.082 -12.12655562482856 -7.8305838231505795 -18.93567644625907 1 0 1
1711 17 3 0.079 -4.724375586432519 -0.7252636658844906 -0.5045420417097368 0 0 0
93 1 1 -0.295 -15.292979314303722 -12.335604764568718 -18.60793709351399 0 0 0
6301 141 8 -0.82 -15.382919616264731 -0.3699959242214135 -19.331851526943222 1 0 1
473 5 2 -0.023 -2.821507961045455 -0.15080073559984442 -11.77732040903621 0 0 0
1642 17 3 0.082 -5.466305851371088 -1.0232226506210615 -4.867980177129102 0 0 0
1745 18 3 0.082 -19.054702549388608 -19.124961606441346 -15.586881858365674 0 1 0
4072 41 3 0.082 -4.592590702424854 -17.705970015925377 -18.035879167968996 0 0 1
2020 20 4 0.211 -7.967031123166414 -14.945814907376327 -18.620315020955662 0 1 0
1115 12 3 0.093 -10.904952380035649 -15.841633586875677 -0.11420689044861376 0 0 0
3380 34 3 0.083 -0.02027038509642054 -15.302153487547441 -11.266762173590127 0 0 0
4497 45 3 0.083 -11.529304682017852 -13.598321112748993 -9.451705143034356 0 1 0
614 7 3 0.079 -17.989980150625883 -15.629883440495975 -0.10781667876953449 0 0 0
4501 45 3 0.083 -9.798692330244089 -13.557267627249026 -10.980724379814452 0 1 0
6220 114 8 -0.82 -5.870568142618698 -15.574978269050366 -18.308216728327864 0 1 0
4505 45 3 0.083 -9.754008663847422 -14.829936565454123 -13.203243783077252 0 1 0
2012 20 1 -0.295 -9.344450505805176 -11.663610003368587 -16.545362625455326 0 1 0
3373 34 3 0.082 -1.7206351790633896 -12.510201325272144 -13.37994111280237 0 0 0
6328 150 8 -0.82 -7.126669228589643 -16.416878401896184 -16.179176068543693 0 1 0
4516 45 1 -0.283 -9.865469417022473 -17.580901886512446 -17.721731838588145 0 1 0
6391 171 8 -0.82 -0.9316885853470183 -5.782381892211163 -10.32030092644606 0 0 0
4503 45 2 -0.023 -9.654245894950808 -15.734740842091359 -12.546182285491376 0 1 0
4504 45 3 0.083 -8.595938663997492 -16.069618977985986 -12.332780408356374 0 1 0
2015 20 3 0.079 -8.715240126250832 -13.642805653322185 -16.176536595491243 0 1 0
2013 20 2 -0.063 -9.335701418539283 -13.011387461367043 -16.89139013732313 0 1 0
4509 45 1 -0.284 -9.913097661668191 -16.784881224091578 -14.612208428642365 0 1 0
2018 20 3 0.093 -9.326555009217458 -12.346118774465188 -18.857971731224794 0 1 0
2016 20 5 -0.019 -8.666706546338405 -13.039307142319043 -18.26368761056265 0 1 0
4515 45 3 0.082 -8.918854567489733 -18.274693286768073 -15.946032725104956 0 1 0
2019 20 7 -0.328 -8.727323242323708 -14.362281939248355 -18.852106288061158 0 1 0
2017 20 3 0.093 -7.611087113815723 -12.68433752544604 -18.415555753103696 0 1 0
3466 35 3 0.082 -4.898053263064584 -15.808914571820283 -15.277215955142417 0 0 0
3459 35 3 0.082 -4.15147938103221 -13.99447064339589 -10.751484958887314 0 0 0
3458 35 2 -0.023 -4.9078765420938915 -13.91674152050977 -11.575758785904334 0 0 0
3461 35 2 -0.023 -5.115315067749604 -15.24095936239701 -12.348329806440603 0 0 0
3457 35 1 -0.283 -6.123923788439587 -13.546445163222508 -10.991521565202769 0 0 0
3462 35 3 0.082 -6.129466971267346 -15.41378874041043 -12.816874235005614 0 0 0
3460 35 3 0.082 -4.6372027193186245 -13.07545327225775 -12.242555721359103 0 0 0
3463 35 3 0.082 -4.711902545828465 -16.16189738807918 -11.864744110791264 0 0 0
3464 35 1 -0.283 -4.231021835490948 -14.957972603119119 -13.48053253622082 0 0 0
3465 35 2 -0.023 -4.301183959148556 -16.092056265749463 -14.380184824447998 0 0 0
3471 35 1 -0.284 -2.413079106931864 -17.719504501798593 -14.114080810096656 0 0 0
3467 35 3 0.082 -4.826685557765476 -17.014196304323672 -14.01920891205739 0 0 0
3470 35 3 0.082 -2.716474595154228 -16.58641611035446 -15.86618021753609 0 0 0
3472 35 2 -0.023 -1.1002550882182867 -18.226075671626628 -14.405377920170622 0 0 0
3468 35 2 -0.023 -2.798591543646527 -16.449259292992757 -14.750859251115756 0 0 0
4513 45 2 -0.023 -9.913136271072847 -18.240749349179058 -16.45742701734204 0 1 0
3469 35 3 0.082 -2.1581973521452973 -15.590508973901258 -14.45490736578444 0 0 0
3374 34 2 -0.023 -1.375445394843556 -13.00990107382874 -11.331380549256215 0 0 0
3386 34 3 0.083 -0.7335593050070024 -17.205184844831543 -7.130049402680308 0 0 0
3504 35 3 0.082 -3.382759523641777 -11.196127463970203 -16.62328856645059 0 0 0
3372 34 3 0.082 -1.0102031755144267 -14.121807547958461 -13.128673918068234 0 0 0
3503 35 2 -0.023 -3.2402025365502283 -12.268714356406065 -16.338291599582824 0 0 0
3500 35 2 -0.023 -2.026409566256067 -12.770212086243975 -17.08764019576019 0 0 0
3499 35 1 -0.284 -1.145299194476106 -13.472984816816819 -16.207657921035914 0 0 0
3505 35 3 0.082 -2.9994784308914753 -12.355559556376493 -15.25084850940473 0 0 0
4500 45 3 0.083 -8.936038021377115 -14.981529795863022 -10.314403305932982 0 1 0
4484 45 3 0.082 -8.806494539207073 -18.433128337287705 -10.807969489963156 0 1 0
3501 35 3 0.082 -2.337832836267175 -13.402025642148487 -17.9417147806276 0 0 0
3502 35 3 0.082 -1.5801317077631083 -11.853466855458187 -17.542144028779795 0 0 0
4499 45 2 -0.023 -9.94647709241522 -14.592821125988127 -10.588724462628605 0 1 0
3377 34 1 -0.285 -1.8051478303712933 -14.34251961239638 -10.8532337122291 0 0 0
6221 114 9 0.41 -5.475941115836223 -14.632514213373174 -18.205509854487396 0 1 0
3371 34 2 -0.023 -0.9344923779014245 -13.055762547457213 -12.785192003347536 0 0 0
3508 35 3 0.082 -5.128293745568868 -12.861711667344295 -14.602004501439165 0 0 0
3506 35 1 -0.283 -4.444409766801906 -12.976729898525207 -16.57625414702382 0 0 0
3507 35 2 -0.023 -5.467945889661779 -12.764323355444965 -15.658295636035923 0 0 0
3509 35 3 0.082 -6.26189410511423 -13.546354715437161 -15.721206108640756 0 0 0
6330 150 9 0.41 -8.141580078087364 -16.522731734780464 -16.154369204710424 0 1 0
6222 114 9 0.41 -5.78179987003343 -15.89248015041737 -19.26968085842239 0 1 0
4073 41 3 0.082 -5.98344369927883 -18.628442587321402 -18.65858096929208 0 0 1
4482 45 2 -0.023 -7.694195659881663 -18.448529603319184 -10.619311644942714 0 1 0
3375 34 3 0.083 -2.2676724999394793 -12.35130888868451 -11.195629113498978 0 0 0
3510 35 2 -0.023 -6.136480157721527 -11.396141117460914 -15.78630974803791 0 0 0
3454 35 2 -0.023 -6.091006263780908 -12.226284971116037 -10.326326465748584 0 0 0
3455 35 3 0.082 -5.127814401254168 -11.829602346086727 -9.910720015902669 0 0 0
4485 45 2 -0.023 -7.334425575646488 -17.362190707749612 -9.614709475765562 0 1 0
3452 35 3 0.083 -8.131540645448661 -12.268218981776354 -9.728624128698364 0 0 0
3451 35 2 -0.023 -7.133932543503699 -12.223947492781745 -9.202118516435737 0 0 0
3453 35 3 0.083 -6.979605403105085 -13.139806195673815 -8.565988537238589 0 0 0
3456 35 3 0.082 -6.559809539243389 -11.432818032105024 -10.953330637199938 0 0 0
3450 35 1 -0.283 -7.02830622771098 -11.012895134717807 -8.379334102805263 0 0 0
340 4 1 -0.284 -18.98991068418071 -19.421758396958953 -6.674005684426122 0 0 0
6329 150 9 0.41 -6.658270006892909 -16.245317730945647 -17.081557815052985 0 1 0
4477 45 3 0.082 -4.717411410988218 -18.787392694565856 -11.182841269382878 0 1 0
4475 45 2 -0.023 -4.859772682442772 -19.406752593294044 -12.10265986557522 0 1 0
4478 45 2 -0.023 -6.281257880088884 -19.423203457142304 -12.348578742617239 0 1 0
6219 113 9 0.41 -9.935160789844034 -10.3867364434864 -12.73761278030189 0 0 0
6218 113 9 0.41 -8.495316832633591 -11.235680382058575 -12.969311487532696 0 0 0
6217 113 8 -0.82 -9.132464082764786 -10.810937978060455 -12.300313764341947 0 0 0
4481 45 1 -0.284 -6.900303504235961 -18.20428208122471 -11.811273654232892 0 1 0
3512 35 3 0.082 -5.35543264358189 -10.689148567237236 -16.16552654522283 0 0 0
3511 35 3 0.082 -6.951976434580564 -11.301756765993352 -16.560885384352453 0 0 0
3513 35 1 -0.283 -6.516780653907375 -10.790603764722704 -14.494920021156428 0 0 0
4071 41 2 -0.023 -4.867327892901793 -18.597832075064105 -18.645168447366164 0 0 1
1105 11 3 0.079 -14.722900574185186 -13.528782896605037 -0.8644910118259652 0 0 0
4496 45 2 -0.023 -10.79461734207261 -14.422713295253855 -9.312415151091344 0 1 0
3378 34 2 -0.023 -0.6615906043124475 -14.988690370203662 -10.412263129733592 0 0 0
2181 22 3 0.083 -9.19314238992226 -19.535014187778156 -13.52320035331209 0 1 0
4476 45 3 0.082 -4.207966028595006 -18.938732682175225 -12.886254339354988 0 1 0
3383 34 3 0.083 -1.8006779260403363 -15.848215034327854 -8.720523206213034 0 0 0
3381 34 2 -0.023 -1.1176956571724794 -16.180396830432347 -9.569881059766407 0 0 0
4486 45 3 0.083 -7.337986483522725 -16.3711536346293 -10.135024375920446 0 1 0
2021 21 4 0.211 -4.038414093831543 -13.3472608197463 -9.270213411644809 0 0 0
436 5 3 0.082 -1.0425806588027235 -4.323558876065915 -16.29507991786221 0 0 0
8 1 3 0.079 -18.450991762972095 -8.260564360459448 -13.271626803189758 0 0 0
2091 21 3 0.082 -10.709590539178743 -0.30908972733089257 -16.408078689823896 0 0 0
3131 31 4 0.211 -13.555423266442041 -2.5229767630745457 -0.5391419089472187 1 0 0
5741 57 3 0.083 -0.19899449718999307 -0.21990032771593349 -0.8948445013183033 0 0 0
3477 35 3 0.083 -1.0551746141661376 -18.015520606632915 -12.31999312267046 0 0 0
1331 14 3 0.083 -5.535254917221069 -18.823477728848662 -7.393409132838421 0 1 0
719 8 3 0.08400000000000001 -6.398133043822289 -8.184296735304152 -0.9464183481340669 0 0 0
4518 45 3 0.082 -10.274732205654393 -19.075996242249683 -19.066738646653615 0 1 0
3880 39 3 0.083 -17.174061798974453 -7.855660896601616 -0.9916602504700052 1 0 0
2189 22 3 0.082 -12.621530435405983 -18.992775644686358 -11.263624190954982 0 1 0
4068 41 3 0.082 -2.9249099372111473 -19.27934109265608 -16.800226622010808 0 0 1
1314 14 4 0.211 -2.2985113135159487 -14.366777660994838 -5.411730817948126 0 1 0
2058 21 2 -0.023 -4.452688963668175 -0.6476945333738655 -16.361680850045822 0 0 0
367 4 3 0.082 -17.46119802697072 -16.38789745230616 -18.478102688808914 0 0 0
74 1 3 0.082 -16.349932649260886 -8.301331987831235 -10.284734857391095 0 0 0
549 6 1 -0.285 -2.769312920337722 -8.005601085043091 -19.08030514122569 0 0 1
6100 74 8 -0.82 -8.944417818334326 -9.276201782259221 -10.002461636452024 0 0 0
6101 74 9 0.41 -8.689202409956541 -9.94763865423106 -9.303114163076172 0 0 0
82 1 3 0.082 -15.952610835518728 -9.81477703368455 -14.14408654201315 0 0 0
6 1 2 -0.063 -18.603649066559832 -7.231662671874483 -12.898989218126344 0 0 0
3559 36 2 -0.023 -13.043862439952136 -8.849224549313995 -17.345686831963967 1 0 1
3557 36 3 0.082 -12.606849488816517 -6.450003218501882 -15.055685417238827 1 0 1
3556 36 3 0.082 -13.862415338375627 -7.660500721916971 -15.372766846710281 1 0 1
1 1 4 0.211 -16.48462008364039 -6.9791086473925965 -14.90974722054125 0 0 0
3554 36 3 0.083 -13.614088008899438 -5.452834157908782 -17.509806631985654 1 0 1
2 1 6 -0.328 -16.562504106703308 -6.56066081885303 -14.030263072449152 0 0 0
5247 52 3 0.079 -16.047161446712767 -5.547348289220123 -10.810117504976718 1 0 0
6120 80 9 0.41 -12.8471693078442 -3.1689773928608673 -12.174300535082377 0 0 2
3558 36 1 -0.283 -12.348066677653824 -7.774860362342748 -16.706020371681852 1 0 1
6118 80 8 -0.82 -13.186347806592796 -3.7985658097882364 -12.8934659473903 0 0 2
3552 36 2 -0.023 -13.966954760747523 -5.817107330343633 -16.50426934545202 1 0 1
3553 36 3 0.083 -13.937951470362094 -4.942280453145823 -15.795336064618407 1 0 1
3555 36 2 -0.023 -13.153826299816096 -6.959946406731516 -15.896000064426023 1 0 1
6119 80 9 0.41 -13.592254610863538 -4.680398890002715 -12.583989345887872 0 0 2
3545 36 2 -0.021 -17.170448436392814 -4.827818674138072 -16.753260223780288 1 0 1
6343 155 8 -0.82 -14.600380494212928 -2.655573603295892 -15.248982579683972 0 1 1
3551 36 1 -0.283 -15.280350606331186 -6.243149880247618 -16.67843092209282 1 0 1
3546 36 3 0.08400000000000001 -17.229712684514546 -5.270814790894699 -15.737032641328092 1 0 1
6344 155 9 0.41 -15.586580559267702 -2.8056786977848525 -15.111110857499728 0 1 1
3548 36 2 -0.023 -15.961593831938917 -5.331486709401233 -17.566407359313438 1 0 1
3549 36 3 0.082 -15.342177983569556 -4.410550510740176 -17.65031068092484 1 0 1
5244 52 1 -0.295 -16.095447240415822 -3.531977018285346 -10.386299648311264 1 0 0
3547 36 3 0.08400000000000001 -17.00783585153156 -3.726210355029398 -16.651237573481758 1 0 1
3544 36 1 -0.295 -18.29435871483575 -5.094814320159918 -17.49999898943299 1 0 1
3550 36 3 0.082 -16.209173812497724 -5.742223489659292 -18.581247717371312 1 0 1
5241 52 2 -0.021 -16.415600183938356 -3.391497804009191 -11.800519762531358 1 0 0
5243 52 3 0.08400000000000001 -17.313485296117758 -3.9921169332688162 -12.101663018847344 1 0 0
3 1 5 -0.019 -17.97380536718066 -6.332457789511601 -13.907857082145112 0 0 0
5 1 3 0.093 -18.060764705143665 -5.297261163014431 -13.493451627025015 0 0 0
5242 52 3 0.08400000000000001 -15.574862227978134 -3.83217443140334 -12.378730301395704 1 0 0
5238 52 2 -0.023 -16.67296093663949 -1.9692307385430965 -12.06433577638542 1 0 0
6106 76 8 -0.82 -12.39385464551341 -0.33261045587133253 -11.543318719990367 0 1 1
1113 12 6 -0.328 -12.927395947206218 -16.138875583224177 -0.7315874750122155 0 0 0
6211 111 8 -0.82 -10.431159296984102 -5.21388455362305 -12.627631060939184 0 0 1
6213 111 9 0.41 -10.76649600325001 -5.462027098442794 -11.701981497137446 0 0 1
6345 155 9 0.41 -14.100847258196364 -2.82976200876168 -14.383422652881201 0 1 1
6138 86 9 0.41 -12.614038926775443 -1.9767655283514145 -17.772061971213677 0 0 1
6136 86 8 -0.82 -13.310004432627643 -1.2551957172264565 -17.886611371280768 0 0 1
6137 86 9 0.41 -14.156029516863597 -1.6140790820018012 -17.432615163761838 0 0 1
98 1 3 0.093 -13.946928099152945 -14.453981133824321 -18.890663752314456 0 0 0
6333 151 9 0.41 -14.401556400389829 -7.304875739715898 -12.453517317582588 1 0 0
6288 136 9 0.41 -8.621535549822756 -7.257736555112411 -9.293409686964504 1 0 1
7 1 3 0.079 -18.14126383570464 -7.069155555282446 -11.892823473484725 0 0 0
5237 52 1 -0.283 -16.986384897743342 -1.885239556283203 -13.459112817433928 1 0 0
6126 82 9 0.41 -10.851265878237571 -3.3195176489306384 -12.34722993550939 0 1 0
6124 82 8 -0.82 -10.481956562688133 -2.4026710141691368 -12.060888208970553 0 1 0
6125 82 9 0.41 -9.5736176120254 -2.4131535696843898 -11.540536921153583 0 1 0
5239 52 3 0.082 -17.57882115934144 -1.7149646771739242 -11.477248194160463 1 0 0
3560 36 3 0.082 -14.159456290103654 -8.70355126254369 -17.254696400335654 1 0 1
5234 52 2 -0.023 -17.597527950229562 -0.6585778601478367 -13.918739531450502 1 0 0
6327 149 9 0.41 -14.326029966570067 -2.9116049917535776 -10.413038485512553 1 0 0
6331 151 8 -0.82 -13.848593078885795 -6.476286107076353 -12.233112871753498 1 0 0
6332 151 9 0.41 -13.125552017957084 -6.6542256931155865 -11.541771015121105 1 0 0
3529 35 3 0.079 -8.389514509304943 -3.2938174954849586 -17.030667027029445 0 0 0
3531 35 5 -0.019 -10.457005126041432 -3.163395401266822 -17.909324060808473 0 0 0
3535 35 4 0.211 -11.571745853104051 -4.687391989328699 -17.245455881687153 0 0 0
3533 35 3 0.093 -10.738193063019523 -2.0857822598463933 -17.78157388322755 0 0 0
3534 35 7 -0.328 -11.74759222323787 -3.6984597443838663 -17.54968054910571 0 0 0
5240 52 3 0.082 -15.813205633765222 -1.3248000875856931 -11.773260563496573 1 0 0
3536 36 4 0.211 -18.545680374854776 -2.6456115328702197 -18.477744855387495 1 0 1
5245 52 2 -0.063 -16.20990479255107 -4.891172005876822 -9.921439324915754 1 0 0
6212 111 9 0.41 -10.984289254899887 -5.645723966030436 -13.364287957041721 0 0 1
4 1 3 0.093 -18.65563296805679 -6.444428067566607 -14.796544739636072 0 0 0
439 5 3 0.082 -1.1680159056115045 -2.1927729355445322 -14.718903794353205 0 0 0
3528 35 2 -0.063 -9.44920906305289 -3.644587236363261 -16.911832152053815 0 0 0
6108 76 9 0.41 -11.676462429899892 -1.0525912384509546 -11.709115563433377 0 1 1
3122 31 3 0.08400000000000001 -14.815963917153827 -2.1870072632523154 -4.883539056730552 1 0 0
6102 74 9 0.41 -8.826362133610962 -9.785270003458038 -10.881952635347236 0 0 0
3522 35 3 0.082 -10.194898557552827 -7.256126492968397 -15.469558459760567 0 0 0
3523 35 3 0.082 -9.356508215369972 -7.496644514597659 -17.002564919845348 0 0 0
3532 35 3 0.093 -10.27624976108092 -3.396317886003917 -18.98606501898318 0 0 0
3521 35 2 -0.023 -9.198681673719134 -7.145393350691895 -15.95258672767777 0 0 0
5233 52 3 0.082 -15.672879763909984 -0.5188705549281956 -14.691418711376649 1 0 0
6302 141 9 0.41 -14.48302846436289 -0.5763020068263138 -18.91946587947535 1 0 1
6326 149 9 0.41 -13.289350370446801 -1.6505832060541863 -10.732680515011777 1 0 0
3543 36 3 0.079 -19.141516301198582 -3.344640257868317 -16.590726961756005 1 0 1
3379 34 3 0.083 -0.15142340564531764 -14.297774340398313 -9.700829600856167 0 0 0
3442 35 3 0.079 -7.782389882940981 -7.420008801989091 -7.3129447833391445 0 0 0
3191 32 3 0.083 -0.17534986054236512 -10.921912196365355 -8.911449221568839 0 0 0
1645 17 3 0.082 -7.3508571015812425 -0.6507206941939039 -6.513254640786927 0 0 0
435 5 2 -0.023 -1.2086714019495872 -3.2776885356140184 -16.661204545047905 0 0 0
556 6 1 -0.276 -5.987142296350937 -9.60294787248689 -18.863508133688228 0 0 1
2107 21 2 -0.023 -7.380648780778667 -0.5277572604996621 -10.908966878059749 0 0 0
438 5 2 -0.023 -0.5708871849431638 -2.3361557498806675 -15.667677403531941 0 0 0
347 4 1 -0.285 -19.244695692388852 -18.038767437843156 -9.681025008378937 0 0 0
97 1 5 -0.019 -13.229794246010286 -13.659138055917191 -18.56134563800859 0 0 0
2034 21 3 0.082 -4.231756989207035 -9.644624964872 -10.310863744918477 0 0 0
6393 171 9 0.41 -0.048497215639560665 -5.5335485689732185 -9.814993826803576 0 0 0
6286 136 8 -0.82 -8.724146427943506 -6.261296734807829 -9.460180486871836 1 0 1
3527 35 1 -0.295 -9.512863328929228 -5.0433042571929025 -17.00922028990543 0 0 0
3445 35 3 0.08400000000000001 -7.556584821467554 -9.788714279028905 -5.277187728284977 0 0 0
3882 39 1 -0.285 -15.079120999026973 -7.6267583345433145 -0.8013044785056778 1 0 0
437 5 3 0.082 -2.288970868297749 -3.082643770615068 -16.915106899409942 0 0 0
6287 136 9 0.41 -7.893749226785038 -5.897006580183492 -9.93574444173421 1 0 1
3525 35 3 0.08400000000000001 -7.711663921883201 -5.420600532441794 -16.17085496006228 0 0 0
2358 24 3 0.082 -1.254248833385784 -9.797233825799838 -11.612914867434775 0 0 1
476 5 1 -0.283 -2.3535956553981237 -1.3491189469416085 -12.34393681058196 0 0 0
3524 35 2 -0.021 -8.797973711589142 -5.610491107407965 -16.007512767935236 0 0 0
3526 35 3 0.08400000000000001 -9.19595293464836 -5.199992754777476 -15.052304247553053 0 0 0
2365 24 3 0.083 -1.523477421115743 -8.697344905984169 -15.9763902227627 0 0 1
481 5 3 0.082 -2.558942834118721 -4.03467185400161 -11.089915769041655 0 0 0
550 6 2 -0.023 -3.5561534860912047 -9.136713467752237 -18.720944866651585 0 0 1
2062 21 3 0.083 -4.413283412462459 -1.8736651386860537 -18.113499083032032 0 0 0
479 5 3 0.082 -4.1992910107538854 -2.2605492855066807 -11.619652755279281 0 0 0
3530 35 3 0.079 -9.718693886289744 -3.245178012679915 -15.895539864024066 0 0 0
3519 35 3 0.083 -7.183193142157888 -8.73763230981331 -16.6844674900547 0 0 0
3514 35 2 -0.023 -6.562038783483997 -9.372350010313728 -14.690250360254504 0 0 0
3515 35 3 0.082 -5.633022294404814 -9.015028309310578 -15.185104842916537 0 0 0
3517 35 2 -0.023 -7.611864080148155 -8.922745126351638 -15.671284937291045 0 0 0
3516 35 3 0.082 -6.710818423801152 -8.90782662639007 -13.68977424861772 0 0 0
483 5 1 -0.283 -3.3179027877000706 -4.837531760420816 -12.866955738154186 0 0 0
3518 35 3 0.083 -8.373561138036504 -9.729451940645124 -15.762063853748982 0 0 0
490 5 1 -0.283 -3.366215992822749 -5.730217786752448 -15.716545798118455 0 0 0
493 5 3 0.082 -4.775490921203579 -6.9353397629822116 -16.64084664519336 0 0 0
3520 35 1 -0.283 -8.149895392394953 -7.682876829887395 -15.162735939519969 0 0 0
495 5 3 0.08400000000000001 -3.7327343142389253 -5.31666754347016 -18.121402992259075 0 0 0
496 5 3 0.08400000000000001 -4.768999458907615 -4.005101888688705 -17.37020979652919 0 0 0
494 5 2 -0.021 -4.699239415707639 -5.095727322160485 -17.628376928586807 0 0 0
491 5 2 -0.023 -4.655102014721006 -5.879225644546594 -16.32682341395183 0 0 0
492 5 3 0.082 -5.299135509651556 -5.446163304936171 -15.53074198550306 0 0 0
497 5 1 -0.295 -5.7530055370776605 -5.425298188682541 -18.473119116238784 0 0 0
488 5 3 0.083 -4.16453007034964 -6.8937912133973285 -14.226218425340242 0 0 0
2054 21 2 -0.023 -6.035746311094952 -1.3694682512006544 -14.727277596779597 0 0 0
2043 21 1 -0.283 -6.522954109434252 -5.838592481867909 -11.465237788028233 0 0 0
2048 21 3 0.082 -7.891298336979496 -3.899097422108021 -11.63529538379532 0 0 0
2050 21 1 -0.283 -6.745216665552771 -2.863008545218758 -13.018124541048124 0 0 0
2052 21 3 0.082 -7.942119607094501 -2.265943000935131 -14.69606330633216 0 0 0
2047 21 2 -0.023 -7.515396877094455 -4.045203713905604 -12.683441505576358 0 0 0
2051 21 2 -0.023 -6.908116435732527 -2.5473775229233446 -14.400796644560529 0 0 0
2053 21 3 0.082 -6.698152827486783 -3.5112953336073645 -14.94516566430558 0 0 0
2049 21 3 0.082 -8.402865698125145 -4.2136693502063345 -13.35954169054397 0 0 0
487 5 2 -0.023 -3.177504548052603 -6.528724483520836 -14.604332113049331 0 0 0
2044 21 2 -0.023 -6.551323400537649 -5.284520547704545 -12.750793106771596 0 0 0
484 5 2 -0.023 -2.3708407929272077 -5.750296279128502 -13.549426354148434 0 0 0
2040 21 2 -0.023 -5.87235130186358 -7.119002550039674 -11.266608891745653 0 0 0
2046 21 3 0.082 -5.503737262938543 -4.995316754312283 -13.02877041805813 0 0 0
486 5 3 0.082 -1.5771711873251029 -5.179608543013552 -14.128051141341093 0 0 0
2055 21 3 0.082 -5.263017715288024 -1.308225033594784 -13.915878834772712 0 0 0
489 5 3 0.083 -2.5360542210413115 -7.391224962117304 -14.903215239230999 0 0 0
485 5 3 0.082 -1.9403237992938251 -6.512461373837333 -12.851835933161627 0 0 0
432 5 3 0.082 -0.4624779817211113 -4.7653855083208025 -18.864714283893022 0 0 0
2038 21 3 0.083 -3.7168686597021754 -6.763670686559564 -11.038243586918655 0 0 0
2037 21 2 -0.023 -4.628705654831807 -6.808310348159326 -10.380407705956992 0 0 0
2042 21 3 0.082 -5.562263769066563 -7.400760134889138 -12.300435517826035 0 0 0
431 5 2 -0.023 -0.8591800783735444 -3.7299482173273883 -19.09876046284613 0 0 0