LAMMPS data file via write_data, version 2 Aug 2023, timestep = 60000, units = real

10547 atoms
9 atom types
10298 bonds
7 bond types
18449 angles
8 angle types
21000 dihedrals
4 dihedral types

-23.120043943149255 23.120043943149255 xlo xhi
-23.120043943149255 23.120043943149255 ylo yhi
-23.120043943149255 23.120043943149255 zlo zhi

Masses

1 15.9994
2 12.011
3 1.008
4 1.008
5 12.011
6 15.9994
7 15.9994
8 15.9994
9 1.008

Pair Coeffs # lj/cut/coul/cut

1 0.2526 2.8492
2 0.0663 3.5812
3 0.0283 2.3734
4 0 0
5 0.245 2.8114
6 0.1195 3.1
7 0.1195 3.1
8 0.155 3.165
9 0 0

Bond Coeffs # harmonic

1 1109.29 1.12
2 399.792 1.43
3 299.844 1.52
4 400.034 1.53
5 310.707 1.41
6 179.254 0.971
7 1059.16 1.012

Angle Coeffs # harmonic

1 47.694 109.5
2 55.1271 109.5
3 47.635 109.6
4 55.1139 111
5 54.9931 110.3
6 180.46 109
7 30.1731 110
8 75.9 113.24

Dihedral Coeffs # harmonic

1 0.3011 1 3
2 1.4149 1 3
3 0.239 -1 3
4 0 1 1

Atoms # full

8031 80 2 -0.023 -20.70302971984876 -20.93735866196043 -21.59838815333321 1 1 0
8030 80 1 -0.276 -21.330272156461724 -20.132217710300672 -20.606219685709153 1 1 0
8027 80 2 -0.023 -20.432003225590144 -19.212037982141517 -19.862812046949998 1 1 0
8028 80 3 0.083 -20.39057713017886 -19.480088047854334 -18.768765171782558 1 1 0
8026 80 3 0.083 -19.99691894671883 -17.02705448446772 -19.541311700077834 1 1 0
8024 80 2 -0.023 -20.788826351358797 -17.725704064798997 -19.94228360169831 1 1 0
395 4 3 0.08400000000000001 -21.39194401044092 -20.09542717001011 -14.145593558303863 0 0 0
396 4 1 -0.295 -19.528604719561827 -19.121373244713855 -13.954626383707492 0 0 0
394 4 3 0.08400000000000001 -20.2680734317302 -20.820300531302287 -12.950416496211476 0 0 0
393 4 2 -0.021 -20.32241887242234 -20.316442538535675 -13.927062166800688 0 0 0
390 4 2 -0.023 -19.863330315433206 -21.31350492295737 -15.00029714527846 0 0 0
399 4 3 0.079 -19.77334150130383 -17.128935434369343 -13.249285902658668 0 0 0
397 4 2 -0.063 -19.835999786390154 -18.186747904400967 -12.893183620865537 0 0 0
389 4 1 -0.283 -19.762336936852442 -22.616972304248197 -14.325229468748855 0 0 0
392 4 3 0.082 -18.881809599148635 -20.97377646867425 -15.416238020167858 0 0 0
2448 25 2 -0.023 -15.750220327216711 -20.815552032179355 -20.150055639496713 0 1 0
2450 25 3 0.082 -16.39377287196558 -20.06004686110797 -20.661905045250375 0 1 0
398 4 3 0.079 -20.926599165595224 -18.350711042996707 -12.678549430695414 0 0 0
640 7 2 -0.023 -13.185567098099593 -13.179602480843112 -11.966617561691328 0 0 0
8032 80 3 0.083 -19.78999549303539 -21.459187742925817 -21.202741971209225 1 1 0
8033 80 3 0.083 -20.433893389943396 -20.29066263736332 -22.47686326620418 1 1 0
2449 25 3 0.082 -14.77796184476056 -20.27651702048353 -20.088108859919053 0 1 0
10204 135 9 0.41 -17.76556972010453 -14.231018021503823 -22.76812923689679 0 0 0
8023 80 1 -0.285 -21.049941327914695 -17.47144096594681 -21.302778456597224 1 1 0
1398 14 3 0.083 -11.999029257954177 -14.794395559856982 -22.839961145723944 0 0 1
554 6 3 0.083 -0.1513544973951575 -5.828703173202651 -16.426181109628295 0 0 0
2511 25 2 -0.023 -15.657961485213223 -16.077724856811297 -13.818352290500558 0 1 0
2447 25 1 -0.283 -16.251427227485372 -21.390733326553516 -18.979675058705016 0 1 0
7367 73 3 0.079 -22.346947697089032 -11.194754634876528 -21.724949532069438 1 0 1
8029 80 3 0.083 -19.420036984724142 -19.40071892705007 -20.309803832256204 1 1 0
382 4 1 -0.283 -16.677409361691627 -22.31197817918055 -12.56665660227057 0 0 0
2505 25 3 0.082 -16.19543783587263 -20.03823067470015 -13.784405533168613 0 1 0
666 7 3 0.083 -15.301581823184726 -17.642150426881066 -18.563612212235633 0 0 0
2504 25 2 -0.023 -15.60735339257279 -19.82925289731424 -14.721518713910132 0 1 0
2506 25 3 0.082 -16.306119716172738 -19.830555787029784 -15.59262635656556 0 1 0
8025 80 3 0.083 -21.73547647056362 -17.503365017202228 -19.38391314559647 1 1 0
665 7 2 -0.023 -16.209671341112774 -17.03187450213425 -18.785512509757982 0 0 0
8020 80 2 -0.023 -19.955034145776587 -16.87455189348325 -22.014338159827368 1 1 0
8022 80 3 0.083 -19.12109338310961 -17.614855624959773 -21.954254077077138 1 1 0
670 7 3 0.082 -16.685358398559156 -17.959295667225195 -16.90386545348059 0 0 0
668 7 2 -0.023 -17.117747544170356 -17.144363701140428 -17.536467440822783 0 0 0
669 7 3 0.082 -17.088231329128718 -16.209764311189367 -16.92548159048813 0 0 0
674 7 3 0.082 -19.45583884566828 -19.27080045576923 -17.113909766946694 0 0 0
2451 25 2 -0.023 -15.540603372967581 -22.089861693331155 -21.066457773374193 0 1 0
2515 25 3 0.08400000000000001 -17.671233888753402 -15.84740711038297 -12.923943481401256 0 1 0
5111 51 3 0.083 -22.88679888798911 -2.314764414012256 -15.684666806898932 1 0 0
2510 25 1 -0.283 -16.078442975339463 -17.423575967480154 -14.16572196073676 0 1 0
391 4 3 0.082 -20.560163689525393 -21.286372993157652 -15.881166295138994 0 0 0
2508 25 3 0.083 -14.592961225366869 -17.96299245693087 -15.574472478025587 0 1 0
671 7 1 -0.284 -18.4341485162807 -17.59725412502658 -17.934263919538612 0 0 0
672 7 2 -0.023 -19.199156583266586 -18.208211348775254 -16.888425378814574 0 0 0
2452 25 3 0.082 -16.459284987066027 -22.728405623336357 -20.972690668556854 0 1 0
8021 80 3 0.083 -19.652671212467503 -15.890308064806245 -21.582802226942324 1 1 0
2507 25 2 -0.023 -15.077989584821374 -18.342685842291846 -14.620918968406036 0 1 0
1402 14 3 0.082 -9.879831707636143 -14.241369841868227 -23.04434741843031 0 0 1
545 6 3 0.082 -0.23588275581438367 -7.299946628943173 -11.999706065390809 0 0 0
2586 26 3 0.083 -11.755583971602796 -0.4997350079632312 -18.00151395049418 0 0 0
2502 25 3 0.082 -14.122380594985628 -20.78503819327054 -16.869398192891303 0 1 0
673 7 3 0.082 -18.543019112047997 -18.333473609281295 -15.988661632072988 0 0 0
2445 25 3 0.082 -17.96253139475248 -20.215584420779976 -18.600549778087753 0 1 0
8036 80 3 0.083 -21.455175900992355 -22.77869242658879 -21.373423016836973 1 1 0
2454 25 1 -0.283 -15.359700788498397 -21.414383376888757 -22.28345483320904 0 1 0
384 4 3 0.082 -18.651433940542727 -21.64783416164639 -12.278858653626854 0 0 0
8035 80 3 0.083 -22.615942277913035 -21.68960089330517 -22.34946068018887 1 1 0
4807 48 3 0.083 -1.0710146458587673 -23.010764315374654 -21.634756522794557 0 1 1
1459 15 2 -0.023 -3.3132666464653866 -15.620195527640115 -22.00313296397773 0 0 1
676 7 3 0.082 -20.897274985918944 -18.021769241001966 -15.51954629953961 0 0 0
678 7 1 -0.283 -20.130498542810585 -16.120132253706664 -16.192273887504605 0 0 0
675 7 2 -0.023 -20.44813491980891 -17.479569659607453 -16.401743953018318 0 0 0
6882 69 3 0.082 -22.7294594222223 -6.126090231562781 -20.886057961294917 1 0 1
8034 80 2 -0.023 -21.5582088608532 -22.003541912732608 -22.17145028073014 1 1 0
64 1 3 0.082 -0.35327066011543806 -17.195977064832032 -14.52868495889914 0 0 0
39 1 3 0.082 -0.4087868234232559 -20.61075500636449 -17.296784713202534 0 0 0
2444 25 2 -0.023 -17.6604998654205 -21.216200959895172 -19.001900831195766 0 1 0
383 4 2 -0.023 -18.074575512758027 -22.571717661621037 -12.52735050116436 0 0 0
791 8 3 0.083 -14.861937403136265 -0.9158224162370452 -11.93257549281324 0 0 0
1965 20 3 0.083 -4.732930430325538 -6.749861366991823 -22.74873927096895 0 0 1
35 1 3 0.082 -1.64255198820344 -22.229400610029753 -18.59427728074643 0 0 0
2453 25 3 0.082 -14.66625198560982 -22.721062728397555 -20.76365114943119 0 1 0
4838 48 3 0.08400000000000001 -12.589000011976879 -21.748754382047576 -19.91888749577462 0 1 1
2500 25 2 -0.023 -14.675599975831151 -21.465234276554117 -16.169970437278636 0 1 0
2503 25 1 -0.283 -14.633080226641571 -20.86322238353755 -14.864566083531294 0 1 0
2653 27 2 -0.023 -10.868554631277378 -21.772488119214344 -14.84970304657057 0 1 0
2509 25 3 0.083 -14.316436403860338 -18.245529287156447 -13.80035826428895 0 1 0
2657 27 2 -0.023 -10.995548150568846 -19.67469346786057 -13.655140130703929 0 1 0
2660 27 2 -0.023 -11.703325758301181 -19.492825790017857 -12.27063212153999 0 1 0
4848 48 4 0.211 -11.586571228881114 -16.966087213254568 -19.201472498393073 0 1 1
2663 27 1 -0.284 -11.71438196400544 -18.05051964554573 -12.291556568110412 0 1 0
4847 48 7 -0.328 -10.864814963387891 -17.41359658897626 -19.886232598014647 0 1 1
4846 48 3 0.093 -9.492775674234364 -18.768143726471493 -18.846947275320254 0 1 1
4844 48 5 -0.019 -10.406523342272932 -18.658967963153046 -19.502562291260276 0 1 1
4845 48 3 0.093 -10.047026540096992 -19.19929953526441 -20.419063057755153 0 1 1
4841 48 2 -0.063 -11.621353711734477 -19.528155709604956 -19.006163645418685 0 1 1
4842 48 3 0.079 -12.230805688321336 -19.005037610875892 -18.210350064398774 0 1 1
4843 48 3 0.079 -12.428947691552658 -19.475538544418935 -19.788142592732903 0 1 1
10396 199 9 0.41 -9.533427557688887 -20.85675210021398 -18.268528233034797 0 0 1
4840 48 1 -0.295 -11.21671261763196 -20.85738328204193 -18.675761343944988 0 1 1
4837 48 2 -0.021 -11.503098008116481 -21.55546724562669 -19.868800600175227 0 1 1
299 3 5 -0.019 -7.534579651875115 -16.90433762298553 -17.642345685524877 0 0 0
659 7 3 0.083 -13.951982436959852 -16.877016550983413 -20.7940252595631 0 0 0
544 6 3 0.082 -0.028051158638444207 -8.854634652578472 -12.93202645210037 0 0 0
2658 27 3 0.082 -11.588831599187765 -19.360703131153148 -14.557726247838506 0 1 0
2659 27 3 0.082 -10.077655203713087 -19.03250781867375 -13.674957112650752 0 1 0
2656 27 1 -0.283 -10.5124211607995 -21.003507365481322 -13.73798300401309 0 1 0
653 7 3 0.083 -11.06878309677136 -15.300299367886232 -16.924917697775864 0 0 0
301 3 3 0.093 -8.166137033092204 -16.277824984797853 -18.334855200215905 0 0 0
2655 27 3 0.082 -10.841837763498352 -20.990825421660503 -15.658531933682347 0 1 0
4839 48 3 0.08400000000000001 -11.138923529118381 -20.99821184471776 -20.759720844012314 0 1 1
2654 27 3 0.082 -11.8329867711049 -22.292552115039456 -14.606287378705916 0 1 0
62 1 2 -0.023 -0.6410426045264508 -16.152323216654217 -14.827350127966707 0 0 0
2651 27 3 0.082 -9.048880403533792 -22.4025202958052 -15.768586823967851 0 1 0
658 7 2 -0.023 -13.79133246187045 -15.952711956294486 -20.1722240245878 0 0 0
4204 42 3 0.082 -13.388689266033335 -1.5353900750944582 -21.556985003108 0 0 1
10395 199 8 -0.82 -8.633017460375461 -20.69128724517656 -17.801924299914024 0 0 1
2650 27 2 -0.023 -9.88367094242416 -22.86311135828208 -15.180063938291772 0 1 0
652 7 3 0.083 -11.938596280294515 -16.924656338760474 -16.867986340124062 0 0 0
4834 48 2 -0.023 -10.80131791000563 -22.90480195636419 -19.680340486966514 0 1 1
10234 145 9 0.41 -22.44676550233614 -5.340134256357256 -12.907293522308663 0 1 0
4833 48 1 -0.283 -9.467496667451067 -22.677877790417263 -20.26638190487438 0 1 1
651 7 2 -0.023 -12.057647308307438 -15.81240081773603 -16.924624543344553 0 0 0
657 7 1 -0.276 -13.281606873900524 -16.415563129211957 -18.93644699112574 0 0 0
296 3 2 -0.063 -8.080546513126768 -17.422162657450663 -16.298654044542733 0 0 0
303 3 4 0.211 -7.43870946675349 -18.848956018922646 -17.837801995089464 0 0 0
297 3 3 0.079 -8.8835158832558 -18.180886628788098 -16.503404700488886 0 0 0
2662 27 3 0.082 -12.741952394923741 -19.916694357490144 -12.25716110576299 0 1 0
3467 35 3 0.082 -8.00606273585355 -21.282855395883388 -13.78092023016534 0 1 0
3463 35 3 0.082 -7.590923182075256 -19.013705913776555 -13.352850684719735 0 1 0
3466 35 3 0.082 -6.867812805995769 -21.120438140753663 -15.10548228176382 0 1 0
3465 35 2 -0.023 -6.92665251446687 -21.39104957569625 -14.01656648546779 0 1 0
2501 25 3 0.082 -15.745415107210484 -21.532574241990886 -16.507668694630045 0 1 0
2498 25 3 0.082 -13.161057395467662 -22.993395908197208 -16.717193142472464 0 1 0
2497 25 2 -0.023 -14.185105182861554 -22.905848286620323 -16.270381848967183 0 1 0
295 3 1 -0.295 -8.661605984563252 -16.37121832960511 -15.505217836545416 0 0 0
6407 64 1 -0.285 -23.04207575692888 -1.9270949528723946 -12.312783500262189 1 0 0
10397 199 9 0.41 -7.8529334506236825 -21.13796432083502 -18.242913911294647 0 0 1
1446 15 3 0.082 -8.708372871233015 -20.28353155888338 -22.190531077163428 0 0 1
7171 71 4 0.211 -20.786384706800046 -13.384706993182794 -22.585843189895073 1 0 1
1447 15 3 0.082 -8.909102695843218 -18.432453019119034 -22.31191924537571 0 0 1
648 7 3 0.083 -12.495550284960562 -16.485955004867172 -14.06541499396222 0 0 0
293 3 3 0.08400000000000001 -7.4027089603206 -15.244959599280929 -14.134557592319188 0 0 0
292 3 2 -0.021 -7.76056250301254 -15.253800280357463 -15.198288812748766 0 0 0
4959 50 2 -0.021 -0.03946405812313003 -4.102390428087883 -20.161929244816324 0 0 1
5120 51 3 0.082 -18.41017543787474 -0.8353449289711783 -16.46515571464954 1 0 0
1397 14 3 0.083 -11.783623709650941 -16.54443697470154 -22.746307687470264 0 0 1
4811 48 3 0.082 -0.1923169677411991 -20.67711639081684 -21.842599187069748 0 1 1
5118 51 3 0.082 -18.905055590145437 -2.2494305024372885 -18.271901208971343 1 0 0
1445 15 2 -0.023 -8.418578741231192 -19.350805236950016 -22.749047943437922 0 0 1
2579 26 3 0.083 -7.878445701348461 -0.2608063818180639 -15.739124339746198 0 0 0
7372 73 7 -0.328 -22.091998047879503 -8.07229005981785 -22.818803458454912 1 0 1
1460 15 3 0.083 -2.8861103366783816 -16.648601100334194 -21.858298252443475 0 0 1
552 6 3 0.083 -0.10417653711758845 -8.697375260921135 -16.913302890101967 0 0 0
378 4 3 0.082 -14.82103379896185 -20.48559104010982 -11.849274201734008 0 0 0
2412 24 3 0.082 -1.4855530974253597 -21.71020043992146 -14.761046233612928 0 1 0
4806 48 2 -0.023 -1.6109319195861183 -22.316075911009754 -22.338364598073927 0 1 1
1461 15 3 0.083 -2.9858901727901497 -15.033264255282749 -21.108636563109464 0 0 1
1453 15 3 0.082 -7.401928531954047 -17.008354010519515 -20.614108917828943 0 0 1
302 3 7 -0.328 -7.122368419774572 -18.018676106713926 -18.439386957194316 0 0 0
4829 48 3 0.082 -6.972569493851882 -22.752430629985316 -21.157670705541136 0 1 1
1452 15 2 -0.023 -6.723389736902508 -17.240861351637573 -21.49085291743215 0 0 1
4961 50 3 0.08400000000000001 -0.5603636128001561 -4.578888732846636 -21.03361074210454 0 0 1
7102 71 3 0.082 -23.051231689343737 -18.841037183938916 -22.887524977675945 1 0 1
1451 15 1 -0.284 -6.5783241853830035 -18.67538019355166 -21.552921549502784 0 0 1
4826 48 1 -0.283 -6.435998339191361 -22.280707726675107 -19.118113295463274 0 1 1
4824 48 3 0.082 -4.275196212008122 -22.33156202472606 -19.58036511449286 0 1 1
3461 35 2 -0.023 -6.8276191741025265 -19.391066863134927 -12.617840580720477 0 1 0
4809 48 2 -0.023 -1.2865289058433795 -20.897886440364633 -21.91980340268074 0 1 1
4815 48 3 0.082 -1.8934210081385707 -18.66501187569735 -20.81040631325655 0 1 1
4814 48 3 0.082 -3.4718637684732165 -19.524013420243048 -21.029710248163518 0 1 1
2419 24 3 0.079 -3.19622984331496 -17.78688623067731 -13.870049736960416 0 1 0
4813 48 2 -0.023 -2.5663450318296483 -19.47230036814822 -20.395823958573885 0 1 1
4818 48 3 0.082 -2.123638222520121 -18.92960964086472 -18.384418949574535 0 1 1
4816 48 2 -0.023 -3.028731260742102 -19.280793790566687 -18.935412174645034 0 1 1
2410 24 2 -0.023 -2.5457916307669777 -21.72515284550608 -14.407126768123693 0 1 0
4821 48 3 0.082 -5.289604044925383 -19.98666587304354 -17.974313109906305 0 1 1
4819 48 1 -0.283 -3.255949428274345 -20.574298348832443 -18.361128474101577 0 1 1
4823 48 2 -0.023 -5.137474863288784 -21.681684289399293 -19.291025516737424 0 1 1
2413 24 2 -0.021 -2.693112563991246 -20.22319978867108 -13.999255960791201 0 1 0
2421 24 3 0.093 -5.338887442334784 -17.69577771790957 -14.711638380967232 0 1 0
2420 24 5 -0.019 -4.543465067521414 -17.49143425567568 -15.46492554141447 0 1 0
2416 24 1 -0.295 -3.6751476368085534 -19.61822104719353 -14.870442123119997 0 1 0
2417 24 2 -0.063 -3.3292917372709745 -18.211730605584076 -14.900833017728473 0 1 0
2422 24 3 0.093 -4.9087656012804715 -17.966135983761056 -16.41689369217091 0 1 0
2423 24 7 -0.328 -4.164818470256307 -16.20157836189908 -15.68869797251485 0 1 0
2414 24 3 0.08400000000000001 -1.7548393728540148 -19.65720578832969 -14.229152680281508 0 1 0
2418 24 3 0.079 -2.3895024774532416 -18.010697131956537 -15.488138672779876 0 1 0
4582 46 1 -0.284 -12.917849605413226 -23.088429220404162 -22.508960404657067 0 1 1
4820 48 2 -0.023 -4.688151253816013 -20.912765279877757 -18.13697255226399 0 1 1
4822 48 3 0.082 -4.906137595420795 -21.522006341828142 -17.22692987075188 0 1 1
4825 48 3 0.082 -5.2461893754985205 -20.99496361908243 -20.17216411900896 0 1 1
2415 24 3 0.08400000000000001 -2.935294283414123 -19.998310001638174 -12.92795311331184 0 1 0
4817 48 3 0.082 -3.7920009554959435 -18.46882558470931 -18.986505970647443 0 1 1
4812 48 1 -0.284 -1.8915788744408921 -20.74955010811354 -20.557174109808983 0 1 1
2424 24 4 0.211 -3.787184608193531 -15.71149890529471 -14.840772267046308 0 1 0
3468 35 2 -0.023 -6.324427855473285 -22.78190198383118 -13.740550231167733 0 1 0
642 7 3 0.082 -12.155696777574853 -12.824491770155662 -11.747993150643739 0 0 0
1457 15 3 0.083 -5.585821983317857 -16.181456480781943 -20.141290294148547 0 0 1
7365 73 1 -0.295 -20.832315361945945 -10.911445258147848 -23.04369727544005 1 0 1
1455 15 2 -0.023 -5.362622594938564 -16.671654263320853 -21.117672376193532 0 0 1
1458 15 1 -0.285 -4.784438874984904 -15.679060810558745 -21.989743914844485 0 0 1
3464 35 1 -0.283 -6.130943380218486 -20.52399382102981 -13.104796535208484 0 1 0
3469 35 3 0.082 -5.23857029826863 -22.69567175991507 -13.47831052476091 0 1 0
461 5 3 0.083 -2.082174357372626 -18.05992867750797 -11.916893828571153 0 0 0
2408 24 3 0.083 -1.5476262465298802 -21.699152049320215 -12.107293380643233 0 1 0
7165 71 3 0.079 -22.74975817913478 -13.668383576180295 -21.597812697997867 1 0 1
10218 140 8 -0.82 -4.952392937844319 -22.65412263201163 -22.67319605503956 0 1 1
300 3 3 0.093 -6.551955262283855 -16.417414723666827 -17.46597179892539 0 0 0
2411 24 3 0.082 -3.189594534147414 -22.034238737180065 -15.267789929484444 0 1 0
67 1 3 0.082 -2.3727861102173797 -16.601381144821687 -17.071778609854416 0 0 0
298 3 3 0.079 -7.292975550524323 -18.01380389734495 -15.759671145214426 0 0 0
1454 15 3 0.082 -7.161420765213466 -16.7782016048353 -22.410895548683687 0 0 1
65 1 1 -0.284 -0.5561736774325752 -15.804771585149236 -16.229924686877677 0 0 0
206 3 3 0.093 -0.06437086418287663 -3.6859236068460532 -15.679743006066737 0 0 0
1961 20 3 0.083 -3.771541005028542 -4.863399158304944 -22.344527088628617 0 0 1
4268 43 3 0.082 -1.8814385745290778 -0.44063145090060374 -17.086172959941077 0 0 1
72 1 1 -0.283 -0.39657412499028766 -17.120183502155314 -19.175932518740694 0 0 0
294 3 3 0.08400000000000001 -6.938300751353083 -15.213111580403726 -15.971551164802923 0 0 0
4978 50 3 0.082 -6.222614994831307 -2.0423815119478625 -22.820426882593434 0 0 1
452 5 2 -0.023 -4.250338022284012 -15.524386574291778 -12.353183743987179 0 0 0
455 5 1 -0.276 -2.830334145353504 -15.779509982565497 -12.372119320296411 0 0 0
453 5 3 0.083 -4.662030815471333 -16.204633917048703 -13.140804257461832 0 0 0
5110 51 3 0.083 -22.677429336316326 -3.7025398274885752 -16.85715477500289 1 0 0
4578 46 3 0.082 -10.568267363716055 -22.962610631808563 -22.881445323783858 0 1 1
400 4 5 -0.019 -18.92378174264779 -18.40424326806492 -11.635189760574939 0 0 0
10220 140 9 0.41 -4.793296380795695 -21.927871914702546 -22.0021270099512 0 1 1
71 1 3 0.082 -1.8713691171612936 -15.700079332165753 -19.13077780403581 0 0 0
66 1 2 -0.023 -1.2711363696858236 -16.5489696889377 -17.22704416524851 0 0 0
10164 122 8 -0.82 -2.8142304577462376 -10.989355444808385 -22.25397972440614 0 0 1
6402 64 3 0.082 -21.560699595316866 -0.27807519768373723 -13.144254601538128 1 0 0
69 1 2 -0.023 -0.9753982945955713 -15.954751925851728 -18.53543093758501 0 0 0
2613 26 3 0.082 -6.153867232753118 -0.6767350663794254 -12.314169152721217 0 0 0
63 1 3 0.082 -1.6811860851532003 -15.887807289419431 -14.482999049240815 0 0 0
2512 25 3 0.082 -15.053680495935197 -15.452692394539561 -14.54007322638729 0 1 0
2514 25 2 -0.021 -16.838692186459554 -15.198805691971316 -13.314886521231621 0 1 0
664 7 1 -0.285 -16.00598810091363 -15.636583331858628 -19.09430846610526 0 0 0
667 7 3 0.083 -16.65369699746451 -17.54396761183676 -19.674297529279727 0 0 0
662 7 3 0.083 -15.532507089222985 -15.390031577525644 -21.13713175728438 0 0 0
2572 26 3 0.083 -6.494101606421946 -2.7715079089523833 -15.5124301633251 0 0 0
661 7 2 -0.023 -15.05467328739984 -15.219446066624393 -20.13614196855712 0 0 0
78 1 3 0.082 -0.6028351824346672 -16.42874361056929 -21.60536772888016 0 0 0
4963 50 3 0.082 -0.2072288695437443 -2.047177974283464 -19.41964411789193 0 0 1
2516 25 3 0.08400000000000001 -17.143233709536915 -14.47928621346368 -14.109898797108745 0 1 0
2517 25 1 -0.295 -16.337881200134102 -14.441909792028728 -12.168716560876547 0 1 0
7166 71 3 0.079 -22.05467248837883 -15.228831291076904 -20.738999791167796 1 0 1
684 7 3 0.082 -19.138347476347466 -13.768940892210415 -16.940955474801065 0 0 0
7168 71 3 0.093 -20.249577548625744 -14.457986945863015 -20.126160855670545 1 0 1
7164 71 2 -0.063 -22.225615950938295 -14.120234324927859 -20.71996049218591 1 0 1
680 7 3 0.082 -21.943663790433998 -15.013563093949408 -16.729943074902405 0 0 0
7163 71 1 -0.295 -22.881491536716336 -13.785820586203696 -19.51272367035127 1 0 1
679 7 2 -0.023 -20.884491568959138 -15.174624423961857 -17.013079359330256 0 0 0
681 7 3 0.082 -20.92597957528589 -15.499173751228625 -18.07268015647189 0 0 0
7170 71 7 -0.328 -20.10305143964662 -13.50974012291239 -21.839002472603596 1 0 1
171 2 3 0.082 -18.047059104186975 -12.026410947017087 -21.597408273955907 0 0 0
683 7 3 0.082 -20.62666004541652 -13.05585395609169 -17.758258956026975 0 0 0
7169 71 3 0.093 -20.577653659097496 -12.662023566848319 -19.950081215576095 1 0 1
6869 69 4 0.211 -22.297432479988597 -10.95727725806509 -19.518902187687623 1 0 1
166 2 1 -0.284 -18.486328231076502 -9.778649235511981 -20.678134216160544 0 0 0
167 2 2 -0.023 -18.035762456168854 -10.752459632444374 -19.72276592900326 0 0 0
168 2 3 0.082 -18.72943674459063 -10.845341295574917 -18.85401665084153 0 0 0
6871 69 5 -0.019 -21.653534580509337 -9.826518242652966 -17.995921367544508 1 0 1
6870 69 6 -0.328 -21.435689389805145 -10.713011396443505 -19.01840600439939 1 0 1
685 7 1 -0.283 -20.60756571992881 -12.839270302902356 -15.754722675731994 0 0 0
6872 69 3 0.093 -21.021301226652696 -10.28254143336511 -17.190339532191473 1 0 1
122 2 3 0.082 -16.451917503864312 -10.19679689910033 -14.348017155536802 0 0 0
7370 73 3 0.093 -21.366995731371013 -9.229951418156062 -21.25636217222559 1 0 1
121 2 2 -0.023 -16.50465140250131 -9.884758431124496 -15.436799120005576 0 0 0
124 2 1 -0.283 -17.17524751793483 -10.847280078253409 -16.2898571236714 0 0 0
126 2 3 0.082 -17.130367167403048 -12.921942055019821 -16.572705240821286 0 0 0
701 7 3 0.079 -18.302440381832884 -8.807012869561797 -12.439959272740884 0 0 0
125 2 2 -0.023 -16.5361048484832 -12.10540019448841 -16.106055733850358 0 0 0
172 2 3 0.082 -18.2822282083539 -12.915781443106118 -20.09737909329983 0 0 0
170 2 2 -0.023 -17.775304841085273 -12.013180503466847 -20.51513860699606 0 0 0
677 7 3 0.082 -21.208205437835236 -17.61022897422605 -17.231544270936308 0 0 0
205 3 5 -0.019 -1.154031975800116 -3.5582014439707486 -15.44556792631963 0 0 0
7167 71 5 -0.019 -20.742610428581337 -13.55086458457588 -20.60370507189797 1 0 1
682 7 2 -0.023 -20.256870864523364 -13.678288521640289 -16.894220675032958 0 0 0
169 2 3 0.082 -17.044302608870463 -10.474300747748668 -19.27362601066551 0 0 0
123 2 3 0.082 -15.452299197359121 -9.700537914506793 -15.78397374559129 0 0 0
173 2 1 -0.283 -16.391110034419377 -12.376670698672719 -20.329854293574968 0 0 0
127 2 3 0.082 -16.373266409893823 -12.465872480852841 -15.067575082273462 0 0 0
129 2 3 0.082 -15.400641446742277 -11.32036584738158 -17.791409359605375 0 0 0
7369 73 5 -0.019 -22.20840181941216 -9.10263837527519 -21.980215255776532 1 0 1
635 7 3 0.082 -14.601678984527547 -9.327530054931469 -12.599350034293872 0 0 0
204 3 6 -0.328 -1.961669962390804 -3.0850160955810786 -16.490709812277018 0 0 0
130 2 3 0.082 -15.088565418853936 -13.005932812291638 -17.3355358870247 0 0 0
128 2 2 -0.023 -15.247691961088645 -11.982728020136726 -16.90641733020137 0 0 0
10125 109 8 -0.82 -21.757477236191374 -9.379407649001998 -14.505057587471462 0 0 0
10126 109 9 0.41 -22.040198406001544 -9.181227797060181 -15.45918249807692 0 0 0
10127 109 9 0.41 -22.554633377433436 -9.506654714184345 -13.900491026411437 0 0 0
1390 14 3 0.082 -16.2090517423401 -17.24117175991377 -23.119851481029542 0 0 1
697 7 3 0.08400000000000001 -17.682735990611537 -11.090146154372944 -12.451624089912904 0 0 0
688 7 3 0.082 -20.617331955736276 -14.10768206651034 -14.14370227032577 0 0 0
663 7 3 0.083 -14.763298172212552 -14.139552148056698 -19.992744699810395 0 0 0
175 2 3 0.082 -16.056629200488608 -11.116665759474932 -22.046660982641082 0 0 0
4194 42 3 0.083 -18.08878238079186 -3.7193078318567956 -22.81893723365026 0 0 1
695 7 3 0.082 -19.995223965136244 -10.460769190675581 -11.757918162742632 0 0 0
687 7 3 0.082 -18.95769957792367 -13.55864542947483 -14.720077008885506 0 0 0
689 7 2 -0.023 -20.128718353409987 -12.107198801612295 -13.524333163910962 0 0 0
5114 51 3 0.082 -22.100596388468947 -2.1781767953493727 -18.709496604904004 1 0 0
10268 156 9 0.41 -21.002445106479268 -8.00408701940143 -13.957538137495703 0 0 1
2409 24 1 -0.283 -2.9360243477618404 -22.671880005472445 -13.340660137325072 0 1 0
157 2 3 0.083 -15.100312376687457 -8.60724764615641 -22.301215038436236 0 0 0
1448 15 2 -0.023 -6.959340958449026 -19.198399036635344 -22.831798875349314 0 0 1
686 7 2 -0.023 -20.00961087095226 -13.250594279577495 -14.552428399736574 0 0 0
1962 20 3 0.083 -2.0687240708327934 -4.559095943454061 -22.904639237349436 0 0 1
2513 25 3 0.082 -15.054674761464062 -16.211351234231223 -12.888490715101472 0 1 0
655 7 3 0.083 -12.190003759268302 -14.65188677751358 -18.728081589547283 0 0 0
654 7 2 -0.023 -12.847115592771953 -15.342829479792826 -18.14514727226151 0 0 0
548 6 3 0.083 -2.145922544070597 -7.495131419643297 -14.320266231430264 0 0 0
660 7 3 0.083 -12.959940487156155 -15.433823060783546 -20.71609054947201 0 0 0
649 7 3 0.083 -11.009370032241634 -15.77395271229695 -14.830105975114552 0 0 0
2560 26 3 0.082 -5.265801070538124 -4.0870793413290905 -17.786104237097636 0 0 0
636 7 1 -0.283 -13.26089687230485 -10.895726816261984 -12.596961323618583 0 0 0
634 7 3 0.082 -13.902686193847952 -9.86924093021498 -14.259548200921758 0 0 0
2555 26 1 -0.283 -6.051689840722723 -5.397743375375356 -19.51865020097067 0 0 0
1401 14 3 0.082 -9.415270552404234 -15.997273460383024 -23.06429345302607 0 0 1
633 7 2 -0.023 -13.730089824099514 -9.741139444397206 -13.161896551118273 0 0 0
644 7 2 -0.023 -12.102351536459894 -14.25876227614715 -13.800875178222121 0 0 0
656 7 3 0.083 -13.721260390178905 -14.766422483978324 -17.78519656475764 0 0 0
650 7 1 -0.285 -12.768212351936345 -15.45514161230031 -15.789153340817435 0 0 0
186 2 3 0.083 -11.073631751933561 -11.329346339708247 -20.15639982760109 0 0 0
647 7 2 -0.023 -12.080867123606367 -15.583555919631788 -14.594879196072288 0 0 0
176 2 3 0.082 -15.22255654242376 -12.721861939256486 -22.02515789516849 0 0 0
174 2 2 -0.023 -15.558935622768397 -11.871111407698065 -21.37932716122096 0 0 0
179 2 3 0.082 -14.643441439914257 -10.290481316072025 -20.353994173271218 0 0 0
177 2 2 -0.023 -14.298380844737494 -11.261685346376844 -20.77341269193197 0 0 0
180 2 1 -0.283 -13.224842873123919 -10.940550901719122 -21.70774223671161 0 0 0
182 2 3 0.082 -11.506634454077282 -11.521988011139582 -22.594392050655593 0 0 0
183 2 3 0.082 -12.778105602416025 -12.80734221904108 -22.431994095096467 0 0 0
181 2 2 -0.023 -12.217296659615561 -12.007827473307351 -21.874228869121993 0 0 0
184 2 2 -0.023 -11.47189992577961 -12.307327971786785 -20.549093267519012 0 0 0
185 2 3 0.083 -12.124430674535615 -12.804070403413657 -19.782104505770707 0 0 0
187 2 1 -0.283 -10.366962417218941 -13.155174822276148 -20.909088777900593 0 0 0
134 2 3 0.082 -13.210398385927993 -10.799053566408732 -18.149942277918843 0 0 0
132 2 2 -0.023 -13.205090193933888 -10.644779299110901 -17.04056082182979 0 0 0
135 2 2 -0.023 -11.775148875142552 -10.86421438713258 -16.552066848693116 0 0 0
133 2 3 0.082 -13.50818502923553 -9.566726473255754 -17.038955569915956 0 0 0
136 2 3 0.082 -11.71415893398887 -11.979208919614795 -16.62887559942806 0 0 0
178 2 3 0.082 -14.02983269025751 -11.933708114449065 -19.90164193389801 0 0 0
138 2 1 -0.284 -10.811728312360978 -10.276164622875497 -17.42493025167434 0 0 0
131 2 1 -0.283 -14.081706293093417 -11.579513445327297 -16.27109401461301 0 0 0
143 2 3 0.083 -9.91202203277874 -9.136042832874761 -19.236812848342513 0 0 0
291 3 3 0.082 -8.939644773581591 -13.70547531995902 -14.382165678747878 0 0 0
147 2 3 0.083 -12.86326572816107 -8.98754472942119 -19.1701636162894 0 0 0
2446 25 3 0.082 -18.09248252917825 -21.3952031860386 -20.02445008729424 0 1 0
137 2 3 0.082 -11.63807724066211 -10.521622663578045 -15.492685678628622 0 0 0
289 3 2 -0.023 -8.565951342126837 -13.972976900889964 -15.40025098987692 0 0 0
290 3 3 0.082 -9.478569815838723 -14.199071999369282 -15.99803646283113 0 0 0
190 2 3 0.082 -8.78861654446642 -11.957974885901999 -21.6132828113474 0 0 0
188 2 2 -0.023 -9.0881193445603 -12.547277943467032 -20.70823098065961 0 0 0
646 7 3 0.082 -12.52348075102158 -13.497496103699385 -14.513896191714302 0 0 0
139 2 2 -0.023 -10.498827237820798 -8.904695304637773 -17.144262385145062 0 0 0
140 2 3 0.082 -9.53630491150096 -8.88560532338427 -16.550895945142866 0 0 0
643 7 1 -0.284 -13.046244817610882 -14.36782894919766 -12.746592383852754 0 0 0
287 3 3 0.083 -9.008017387243518 -11.504438170108084 -15.547263978012666 0 0 0
193 2 3 0.08400000000000001 -8.461151837584952 -14.378381205385619 -19.738551126026017 0 0 0
142 2 2 -0.023 -10.172502365605162 -8.334163108712836 -18.50477272071734 0 0 0
141 2 3 0.082 -11.313130621884959 -8.375229039725294 -16.60084912080087 0 0 0
146 2 2 -0.023 -12.190205822268286 -8.282796162730504 -19.720024609892384 0 0 0
148 2 3 0.083 -11.597153503548803 -8.899784094449114 -20.4693145119362 0 0 0