LAMMPS data file via write_data, version 2 Aug 2023, timestep = 60000, units = real

10547 atoms
9 atom types
10298 bonds
7 bond types
18449 angles
8 angle types
21000 dihedrals
4 dihedral types

-23.128256212650587 23.128256212650587 xlo xhi
-23.128256212650587 23.128256212650587 ylo yhi
-23.128256212650587 23.128256212650587 zlo zhi

Masses

1 15.9994
2 12.011
3 1.008
4 1.008
5 12.011
6 15.9994
7 15.9994
8 15.9994
9 1.008

Pair Coeffs # lj/cut/coul/cut

1 0.2526 2.8492
2 0.0663 3.5812
3 0.0283 2.3734
4 0 0
5 0.245 2.8114
6 0.1195 3.1
7 0.1195 3.1
8 0.155 3.165
9 0 0

Bond Coeffs # harmonic

1 1109.29 1.12
2 399.792 1.43
3 299.844 1.52
4 400.034 1.53
5 310.707 1.41
6 179.254 0.971
7 1059.16 1.012

Angle Coeffs # harmonic

1 47.694 109.5
2 55.1271 109.5
3 47.635 109.6
4 55.1139 111
5 54.9931 110.3
6 180.46 109
7 30.1731 110
8 75.9 113.24

Dihedral Coeffs # harmonic

1 0.3011 1 3
2 1.4149 1 3
3 0.239 -1 3
4 0 1 1

Atoms # full

6982 70 2 -0.023 -20.512957754834446 -20.520699481415377 -21.050850902242157 1 0 1
6981 70 3 0.08400000000000001 -20.048385263365656 -19.379881975121496 -19.369221244227735 1 0 1
6979 70 2 -0.021 -19.429256854012223 -19.87430254922079 -20.147144483906636 1 0 1
80 1 2 -0.023 -17.99973562230199 -19.429379141800617 -16.5595584909865 0 0 0
6978 70 1 -0.295 -18.464496888401328 -20.873493191885288 -19.623632571561362 1 0 1
82 1 3 0.082 -18.78682165457377 -20.115682929537666 -16.960927326502244 0 0 0
6983 70 3 0.082 -21.082287834243775 -21.283806636309134 -20.448453626860953 1 0 1
6985 70 1 -0.283 -21.392958750416284 -19.488383817156173 -21.480043544289405 1 0 1
83 1 2 -0.023 -16.719032320901984 -20.240089474381634 -16.53123434421302 0 0 0
86 1 1 -0.283 -17.08984897967829 -21.566569089237436 -16.90566963109351 0 0 0
6975 70 2 -0.063 -17.183049549612093 -20.82428137428942 -20.32520468932317 1 0 1
6977 70 3 0.079 -16.46281701289559 -20.422126673082097 -19.557365921976 1 0 1
606 6 4 0.211 -19.93858245452484 -16.90179359617505 -19.68817398967898 0 0 0
605 6 7 -0.328 -19.01739717661801 -16.592627502453734 -19.950605718786328 0 0 0
5836 58 1 -0.283 -22.1176418061625 -16.29463943223422 -18.762609364791285 1 0 1
2778 28 1 -0.276 -20.937083190023454 -22.809514222115716 -17.49392836976118 0 1 0
81 1 3 0.082 -17.967396756915043 -18.691216470643568 -17.403209431643912 0 0 0
79 1 1 -0.283 -18.289345010410475 -18.681240470133382 -15.331526117979745 0 0 0
78 1 3 0.082 -17.45397357100049 -17.15683885003806 -16.198503704316373 0 0 0
84 1 3 0.083 -16.30905787036376 -20.169896921961005 -15.487711225201156 0 0 0
76 1 2 -0.023 -17.51526595135166 -17.51081148018598 -15.157308849329198 0 0 0
137 2 3 0.082 -2.685861853494842 -0.011448100980985032 -9.687561290333031 0 0 0
85 1 3 0.083 -15.978891684660564 -19.88717274326721 -17.294530878341536 0 0 0
77 1 3 0.082 -16.494089136121005 -17.732147237027107 -14.758494258432572 0 0 0
2782 28 2 -0.023 -21.16976037352479 -21.301869672827983 -15.710462925753781 0 1 0
2779 28 2 -0.023 -20.543631556708277 -22.624541120618993 -16.1472177361801 0 1 0
6112 61 2 -0.023 -17.988935960435196 -7.283607232394697 -0.15346574990193318 1 0 0
2783 28 3 0.083 -21.884164907121573 -20.94349599835219 -16.483701024251232 0 1 0
5833 58 2 -0.023 -22.61857743246039 -15.360591337379844 -17.79737463042796 1 0 1
3188 32 3 0.083 -8.348901351537105 -22.674516284375454 -9.375906428370115 0 1 0
5636 56 3 0.082 -0.05875431541294063 -20.065017251281777 -13.853287121931986 0 0 0
6980 70 3 0.08400000000000001 -18.894773827331612 -18.996059803956374 -20.57233186957278 1 0 1
6972 70 5 -0.019 -16.71828560812379 -22.182791296587624 -20.78254244237491 1 0 1
5831 58 3 0.082 -21.072456981704953 -16.20280811848501 -16.472035938367288 1 0 1
5842 58 3 0.083 -21.210353160953723 -15.467603812821523 -21.511164062956514 1 0 1
6986 70 2 -0.023 -22.47413903327338 -19.95482469085058 -22.212970159385915 1 0 1
6984 70 3 0.082 -20.048505178816146 -21.106997014513997 -21.878640042258553 1 0 1
6976 70 3 0.079 -17.221193610891824 -20.2464261569358 -21.278914536935897 1 0 1
5840 58 2 -0.023 -22.295096267702075 -15.321675646406185 -21.255683619992396 1 0 1
3612 36 3 0.082 -1.458605677863254 -1.5341796082709962 -20.786664274661966 0 0 1
10283 161 9 0.41 -0.1305492115373177 -22.030649686801375 -6.957223480585473 0 1 1
151 2 3 0.083 -9.310682190668636 -1.393712285156056 -12.602021310229027 0 0 0
2852 29 2 -0.023 -4.584247294446321 -6.207232848906759 -4.525570570104861 0 0 0
5830 58 2 -0.023 -21.81572530827101 -15.361893690587532 -16.484356950245534 1 0 1
5843 58 1 -0.283 -22.540686002546384 -13.97492447099762 -20.84832166419465 1 0 1
5832 58 3 0.082 -21.238556268402075 -14.412311914627553 -16.416809293412847 1 0 1
5834 58 3 0.082 -22.741527991015328 -14.310640270198617 -18.16632137085895 1 0 1
2784 28 3 0.083 -20.434228278223706 -20.462371459154376 -15.616944036711716 0 1 0
5837 58 2 -0.023 -22.780298651361264 -16.200351509313823 -20.042696697580215 1 0 1
207 3 3 0.093 -13.944179028508334 -17.18051887582497 -15.454492257321629 0 0 0
5839 58 3 0.082 -22.658396884031173 -17.20421142374756 -20.5373910352916 1 0 1
6989 70 2 -0.023 -22.992965682527384 -18.80858260068721 -23.080341494321683 1 0 1
2603 26 3 0.082 -1.8588764122089927 -19.403037890598775 -0.5476729552011541 0 1 0
977 10 3 0.082 -22.93453739160627 -5.122778278949141 -22.958008818864602 0 0 0
10450 217 9 0.41 -0.4416535408039337 -9.18081400791391 -19.577939660139208 1 0 0
7592 76 2 -0.023 -0.34147820845776167 -19.013156045637402 -4.6511282573483435 0 1 -1
4510 45 2 -0.023 -15.36931722083635 -22.565619007811822 -4.280819281254399 0 1 0
214 3 3 0.08400000000000001 -14.486107464509551 -16.85083044700847 -18.853713348194233 0 0 0
216 3 3 0.082 -14.65072415746797 -18.889397149276288 -19.218329003282015 0 0 0
2422 24 3 0.093 -7.302740480153421 -0.6311692177666117 -4.094272638833601 0 0 0
1130 12 3 0.083 -14.83508352977326 -12.285084938536068 -0.7173395515154297 0 0 0
1129 12 3 0.083 -15.022545800083705 -12.454046992313982 -2.5038713456922785 0 0 0
688 7 3 0.082 -1.2401469526431441 -11.452464678134664 -0.8734536972101061 0 0 0
6971 70 6 -0.328 -15.335937993138568 -22.347193138360694 -21.01292115026905 1 0 1
91 1 3 0.08400000000000001 -14.628413773302578 -22.01378725063825 -17.987679913855484 0 0 0
213 3 3 0.08400000000000001 -12.916596477129723 -16.486209897503244 -19.66935346611789 0 0 0
217 3 3 0.082 -12.978139681262414 -19.373356858789748 -19.18291103900066 0 0 0
3816 38 1 -0.283 -12.161654236734018 -21.270815853237462 -21.556620280554235 0 1 1
3819 38 3 0.082 -12.594676257446386 -21.40403735504004 -19.459018877720606 0 1 1
3817 38 2 -0.023 -11.78536342838529 -21.562049349339226 -20.209167053134816 0 1 1
3820 38 2 -0.023 -10.465130110038727 -20.856026838236836 -20.036274222469043 0 1 1
215 3 2 -0.023 -13.648767499349962 -18.590708761834446 -19.625126277921257 0 0 0
218 3 1 -0.283 -13.45743018675257 -18.378009257688703 -21.042948102864898 0 0 0
212 3 2 -0.021 -13.45411587719903 -17.25091522431558 -19.034591776947344 0 0 0
4819 48 1 -0.283 -11.645711571892086 -15.396439700338675 -22.61034370963045 0 0 1
3821 38 3 0.083 -10.781894832202866 -19.822752374242015 -20.31628556066345 0 1 1
3826 38 3 0.082 -11.33588688258396 -19.341661842929195 -18.087858899966747 0 1 1
208 3 2 -0.063 -12.76808137458558 -16.201969511571434 -16.855854638953424 0 0 0
211 3 1 -0.295 -12.765603101992648 -17.37067113683794 -17.780628444156026 0 0 0
3824 38 2 -0.023 -10.39774327782792 -19.814421363412805 -17.67872500631138 0 1 1
3822 38 3 0.083 -9.737586926307243 -21.1616007039826 -20.845885604012558 0 1 1
3209 32 3 0.082 -5.0483116736973415 -22.977159653407202 -1.1381441289512786 0 1 0
3827 38 2 -0.021 -9.237700909546277 -18.832192910138282 -17.586688362394277 0 1 1
3828 38 3 0.08400000000000001 -8.910973370523003 -18.738428703205464 -18.652493820005297 0 1 1
3818 38 3 0.082 -11.467855669838778 -22.633277118462345 -20.09548196966744 0 1 1
4825 48 3 0.082 -11.180806772399258 -17.63721737322076 -22.07581988779039 0 0 1
582 6 3 0.082 -22.781327206011124 -7.247763717053777 -16.731012440866074 0 0 0
3823 38 1 -0.283 -9.99126815192011 -20.910468901020664 -18.66294363487515 0 1 1
3825 38 3 0.082 -10.714669938804128 -20.241738225364003 -16.691045199879746 0 1 1
3833 38 3 0.079 -7.985473497225831 -16.831495071704417 -18.153137269071806 0 1 1
219 3 2 -0.023 -14.403735232897466 -19.019478101218436 -21.967045371993347 0 0 0
3831 38 2 -0.063 -8.758185949233237 -16.52492574484273 -17.395735248163245 0 1 1
3829 38 3 0.08400000000000001 -8.458789390718398 -19.22393360669792 -16.886892689580353 0 1 1
3830 38 1 -0.295 -9.668811404776179 -17.536219355307814 -17.096413897309695 0 1 1
221 3 3 0.083 -14.022875699937941 -20.046269149164196 -22.138183716149832 0 0 0
220 3 3 0.083 -15.44424358898739 -19.079326418996743 -21.547723864418707 0 0 0
4826 48 1 -0.283 -9.223585624232854 -17.775387026083738 -22.967999631426444 0 0 1
4829 48 3 0.082 -9.057059756217548 -17.267860904812945 -20.962158742215095 0 0 1
2722 27 3 0.079 -0.46620268233319706 -21.72733849612242 -10.69755884814966 0 1 0
210 3 3 0.079 -12.6661468064597 -15.236214144272992 -17.40329943886018 0 0 0
3834 38 5 -0.019 -7.885468416808376 -16.175222524452078 -16.140325940812875 0 1 1
4128 41 3 0.082 -22.74861254599172 -4.322072097605776 -15.04288480325298 0 0 1
150 2 3 0.083 -9.537952650998628 -0.5621085916735389 -10.973201095959189 0 0 0
95 1 3 0.079 -12.358187749224498 -21.92476441251729 -17.291923189452525 0 0 0
5637 56 3 0.082 -0.11028394286796939 -21.494727543330846 -12.879856202846728 0 0 0
4828 48 3 0.082 -9.10833745936309 -19.02009019764114 -21.394281879566666 0 0 1
4827 48 2 -0.023 -8.648551996092266 -18.036474361885475 -21.656528570899503 0 0 1
3835 38 3 0.093 -7.432876945351984 -17.06523136267771 -15.65550695317874 0 1 1
3832 38 3 0.079 -9.294129315143476 -15.60932854076709 -17.758206718951143 0 1 1
913 10 3 0.093 -16.33476418265817 -15.529049959713035 -22.325773546726083 0 0 0
169 2 3 0.082 -13.018034693072128 -1.4268312376776464 -5.2871580774715845 0 0 0
4515 45 3 0.082 -15.104345491542066 -22.285766069136333 -2.1154656359327326 0 1 0
8507 85 1 -0.283 -0.16397119456829046 -0.03252905994581923 -12.298598980842952 0 0 0
205 3 5 -0.019 -14.000951839198272 -16.212854191920773 -16.004439391622526 0 0 0
4169 42 3 0.082 -4.638060919020521 -3.9829765710764704 -21.93588811276342 0 0 1
10354 185 9 0.41 -2.95236254077993 -20.483094100449367 -4.402703007389018 0 0 0
1463 15 3 0.083 -6.722185501422839 -22.027702254244588 -21.654129057540473 0 0 1
5560 56 3 0.093 -6.764280696613209 -20.14488168472567 -19.546286643853275 0 0 0
5562 56 3 0.079 -7.407728660248935 -21.490787912641956 -17.512355953087795 0 0 0
4741 47 3 0.079 -0.4215692846506478 -5.694438872472226 -1.2421198212903732 0 0 0
5559 56 3 0.093 -5.397620930510833 -21.356182636176147 -19.84469813778076 0 0 0
4830 48 2 -0.023 -7.1706561702318385 -18.22902735688089 -21.662301091394987 0 0 1
4831 48 3 0.083 -6.854128336649964 -17.711224229928455 -22.599706315573947 0 0 1
4993 50 1 -0.285 -2.785205087429407 -21.070203809343724 -20.29465589629697 0 0 0
4998 50 3 0.083 -2.868185709169623 -18.733559779496115 -20.10640861630319 0 0 0
4990 50 2 -0.023 -2.503938323361183 -22.449964908718417 -20.516311350210078 0 0 0
4832 48 3 0.083 -6.911014310166831 -19.308355974190853 -21.77833022116453 0 0 1
4833 48 1 -0.283 -6.706419368418125 -17.625895726299518 -20.42862737014144 0 0 1
4835 48 3 0.082 -6.485419284430364 -15.555570855878798 -20.761106940906032 0 0 1
4834 48 2 -0.023 -5.898405418405325 -16.503308466725187 -20.60888060719539 0 0 1
4836 48 3 0.082 -5.240304700801442 -16.677697799492748 -21.510670348957454 0 0 1
4994 50 2 -0.023 -2.5743855139829783 -20.36746476974281 -21.555171770633965 0 0 0
4997 50 2 -0.023 -2.791573174504169 -18.854420696646507 -21.215906533273056 0 0 0
4992 50 3 0.083 -1.4185629071794672 -22.625767284041896 -20.316736794079063 0 0 0
4966 50 2 -0.023 -2.024410013337338 -18.622528738021426 -16.576374820418362 0 0 0
10356 186 8 -0.82 -6.228208288875589 -19.773386714443383 -15.704435512328025 1 1 1
4967 50 3 0.083 -2.8060098790652965 -18.04962673265737 -17.146148914493153 0 0 0
4839 48 3 0.08400000000000001 -5.5571289781805255 -16.24213185033876 -18.399400446729924 0 0 1
4963 50 3 0.082 -1.487475134379583 -15.79548801610213 -16.27734465077573 0 0 0
4968 50 3 0.083 -2.3554626692835896 -18.73777722974651 -15.518989433170319 0 0 0
5557 56 6 -0.328 -5.1924684707636 -19.890390951745083 -18.360330781728827 0 0 0
4965 50 1 -0.283 -0.8220171003159038 -17.837061536904287 -16.459640048439898 0 0 0
5558 56 5 -0.019 -5.977091980174993 -20.79265441284379 -19.06907558257631 0 0 0
4996 50 3 0.083 -1.56640429767182 -20.7036619363414 -21.91055941311201 0 0 0
5556 56 4 0.211 -4.453944362585453 -20.289827924358395 -18.090858328248427 0 0 0
4837 48 2 -0.021 -4.972652352995002 -16.3683608553029 -19.341107452570153 0 0 1
4838 48 3 0.08400000000000001 -4.369676465965352 -17.30635338603694 -19.443625880685776 0 0 1
4991 50 3 0.083 -2.843406445814285 -22.750591958197912 -21.547101055454174 0 0 0
4995 50 3 0.083 -3.454905563684438 -20.718010157696074 -22.150736386051314 0 0 0
5000 50 1 -0.276 -1.6623949046403546 -18.192621481777987 -21.68301015265555 0 0 0
4999 50 3 0.083 -3.7757572991208974 -18.546465239329308 -21.649832423388933 0 0 0
5561 56 2 -0.063 -6.596313038667514 -21.87662060664313 -18.17112740833649 0 0 0
10358 186 9 0.41 -5.432632032798065 -19.51639044572172 -15.154001531144901 1 1 1
4973 50 2 -0.023 -2.981489452951866 -21.6705176228577 -15.596093403221907 0 0 0
5003 50 3 0.083 -1.6000626797521704 -16.089514575271153 -22.19774046470091 0 0 0
5001 50 2 -0.023 -1.6332112954810434 -16.80138574283178 -21.33938720596139 0 0 0
10441 214 9 0.41 -17.866631677074977 -14.172999995249752 -22.940178840951102 0 1 0
5002 50 3 0.083 -2.604420538817262 -16.568428574295808 -20.82042285823054 0 0 0
4514 45 3 0.082 -16.795475066097804 -22.793165050550517 -2.596404401307204 0 1 0
4962 50 2 -0.023 -0.8719782408117425 -16.584637813780027 -15.759763612271243 0 0 0
5651 56 3 0.079 -0.2354906054802406 -19.91830395350296 -19.391170835300947 0 0 0
7500 75 3 0.082 -0.043639022638835456 -11.558760810750071 -17.592130748451563 0 0 0
2859 29 2 -0.023 -5.58480736932183 -2.9081815118423044 -3.4643363802971443 0 0 0
5563 56 3 0.079 -5.839005589982239 -22.339872559728846 -17.485892168634148 0 0 0
4988 50 3 0.082 -3.162619681315192 -22.7243388901808 -18.500815481335867 0 0 0
4978 50 3 0.082 -1.4167353233622464 -22.815272441037624 -16.67551026703853 0 0 0
5004 50 2 -0.023 -0.3987240956575242 -16.663081888399887 -20.487453297188203 0 0 0
4509 45 1 -0.284 -16.57416382598344 -22.5996896868168 -5.0137161087410576 0 1 0
10440 214 8 -0.82 -18.744097348250378 -14.334463592636405 -22.466172589631995 0 1 0
2780 28 3 0.083 -19.445127070435667 -22.53376176982577 -15.979387555391668 0 1 0
600 6 3 0.079 -19.214869990756824 -15.458989581464959 -17.19680495876095 0 0 0
602 6 5 -0.019 -18.884299021976418 -15.274810301872815 -19.44332701664798 0 0 0
601 6 3 0.079 -17.474409079501957 -15.726239094758874 -17.90790292735289 0 0 0
604 6 3 0.093 -19.815305512546644 -14.66044276352286 -19.5693782946351 0 0 0
603 6 3 0.093 -18.06931791665012 -14.834735780430032 -20.068155907006076 0 0 0
599 6 2 -0.063 -18.444157776412077 -15.18175918237399 -17.97133170338161 0 0 0
598 6 1 -0.295 -18.134637937807728 -13.773443041730276 -17.660023260768416 0 0 0
594 6 3 0.082 -19.083280387580164 -10.617701452017899 -17.528799245395764 0 0 0
592 6 2 -0.023 -19.117853280228132 -11.638460984294143 -17.061599297029506 0 0 0
595 6 2 -0.021 -19.03657050895741 -12.739965688513955 -18.109541117517082 0 0 0
596 6 3 0.08400000000000001 -18.725316189557056 -12.431107523678719 -19.137749732985093 0 0 0
597 6 3 0.08400000000000001 -20.086931605523272 -13.122077542921142 -18.123621179714842 0 0 0
593 6 3 0.082 -18.22952512550926 -11.752570564331199 -16.385901984889912 0 0 0
591 6 1 -0.283 -20.28483431357603 -11.744116099549185 -16.292345009573797 0 0 0
588 6 2 -0.023 -20.65221281530887 -10.576689826743506 -15.61918633968688 0 0 0
10340 180 9 0.41 -17.017926762603068 -9.772219334329435 -20.97122923782263 1 -2 0
10338 180 8 -0.82 -16.717280089514276 -9.477494333460292 -20.046838796252114 1 -2 0
585 6 2 -0.023 -21.426416015843646 -9.628264962633146 -16.527996220458284 0 0 0
590 6 3 0.083 -19.738970127086795 -10.115329413314342 -15.15666889508223 0 0 0
586 6 3 0.082 -21.309048885004444 -9.792706058610202 -17.63544494122835 0 0 0
584 6 1 -0.283 -20.925928341276098 -8.319007964353654 -16.282740797167083 0 0 0
4976 50 2 -0.023 -2.1848689491413396 -22.94027974355864 -15.865947429595725 0 0 0
10123 108 9 0.41 -20.400248739887118 -8.976435919503356 -21.70561806484804 1 0 0
4201 42 3 0.083 -17.654777085021212 -7.594414781511476 -16.239229543212264 0 0 1
921 10 3 0.08400000000000001 -15.354347305708135 -11.16308014832093 -22.293232936197256 0 0 0
10429 210 9 0.41 -20.321497155404167 -11.457843057119167 -21.213050767502523 1 0 1
4211 42 3 0.082 -16.49537248277377 -12.235815240153478 -16.822749270118624 0 0 1
919 10 2 -0.021 -16.162571029879118 -11.754084967827515 -22.82176689803318 0 0 0
10430 210 9 0.41 -20.924608660054883 -13.095149097349125 -21.057110206344827 1 0 1
10428 210 8 -0.82 -20.111946550213133 -12.452704889593141 -21.13431467160716 1 0 1
10339 180 9 0.41 -15.827532522665038 -9.925436767012359 -19.77080716431464 1 -2 0
10192 131 9 0.41 -18.609596093552078 -8.159561386927475 -20.266043183860592 0 0 0
10191 131 8 -0.82 -19.33025065480945 -7.694318943720479 -20.784316106257425 0 0 0
4198 42 3 0.083 -16.314673047173798 -8.07828224624679 -17.855498579885037 0 0 1
923 10 3 0.082 -17.83545083990822 -11.026605430516016 -21.617304473243575 0 0 0
910 10 4 0.211 -16.816266838590376 -15.15186871962196 -20.354803967819016 0 0 0
4210 42 2 -0.023 -15.492706890626808 -11.950880911303589 -16.41463063819732 0 0 1
4212 42 3 0.082 -15.009548753682514 -12.829817122013718 -15.918384993797138 0 0 1
918 10 1 -0.295 -16.357485880605125 -12.959300651722312 -22.086902668266582 0 0 0
10193 131 9 0.41 -19.06068310796506 -6.706170835827141 -20.841975156150387 0 0 0
4513 45 2 -0.023 -15.696225166805952 -22.920825731731476 -2.8058489782426506 0 1 0
5819 58 2 -0.023 -22.621525189158703 -12.755738592894756 -12.201024032912475 1 0 1
1137 12 3 0.082 -14.55441491336329 -8.55215962466222 -0.6308099057233107 0 0 0
914 10 3 0.093 -14.561553335444522 -15.825188954054727 -22.031272019401186 0 0 0
10124 108 9 0.41 -21.417435731949254 -9.722809854357326 -22.80607686611168 1 0 0
4818 48 3 0.082 -12.133676017110442 -13.326625896336244 -22.194428253323462 0 0 1
4222 42 3 0.082 -11.330210950217973 -10.780297836158772 -20.417640762847842 0 0 1
4816 48 2 -0.023 -11.279572817684091 -14.039959115700439 -22.262157044717203 0 0 1
4221 42 2 -0.023 -12.2366413895307 -10.28061055613974 -20.828224338743347 0 0 1
4817 48 3 0.082 -10.494890704279003 -13.643415992639355 -22.95152956374619 0 0 1
4814 48 3 0.082 -11.165390786422325 -13.934142475467631 -20.01460353154519 0 0 1
4813 48 2 -0.023 -10.510697364775366 -14.01973698630938 -20.913505772974787 0 0 1
4213 42 1 -0.283 -14.640338838491704 -11.524262011909235 -17.420303978970434 0 0 1
4812 48 1 -0.284 -9.513616731780093 -12.959602720077191 -20.946923954413045 0 0 1
912 10 5 -0.019 -15.409454167728832 -15.122574416681 -21.812089843156134 0 0 0
911 10 6 -0.328 -15.777837373492922 -15.278170890021187 -20.43995100056138 0 0 0
4215 42 3 0.082 -14.999539150434666 -12.551922619111844 -19.250872005760097 0 0 1
4217 42 2 -0.023 -13.052623887424392 -11.71340236358753 -19.13873741845668 0 0 1
4216 42 3 0.082 -13.798675373938229 -13.356619856459645 -18.01040390441504 0 0 1
4218 42 3 0.082 -12.133199183999832 -12.338055495128195 -19.0176419550806 0 0 1
4214 42 2 -0.023 -14.190039035206288 -12.411406769662795 -18.479135239956733 0 0 1
4219 42 3 0.082 -12.765665030698985 -10.802031777746757 -18.530571914351285 0 0 1
4808 48 3 0.083 -9.318058035175838 -10.432122829806003 -20.42120333017115 0 0 1
4806 48 2 -0.023 -8.656335444400451 -11.035828470027596 -19.746850312252562 0 0 1
4805 48 1 -0.285 -8.616119283593305 -10.465062932142157 -18.431233827739252 0 0 1
4809 48 2 -0.023 -9.246520959533239 -12.432665863753 -19.602085242164524 0 0 1
4758 48 3 0.08400000000000001 -11.546692613573706 -9.515829947726598 -17.085212918228393 0 0 1
4757 48 2 -0.021 -11.260839183910269 -9.373042782874078 -16.01117164791911 0 0 1
4759 48 3 0.08400000000000001 -12.190421202713077 -9.196266707119086 -15.434993638454868 0 0 1
4220 42 1 -0.283 -13.341110787305626 -11.176386295654464 -20.457833774022895 0 0 1
4810 48 3 0.082 -10.137124672953538 -12.63108186847746 -18.93268106463214 0 0 1
4223 42 3 0.082 -12.437650306655565 -9.286764807770233 -20.353657641435593 0 0 1
3837 38 7 -0.328 -6.937911960001369 -15.158382569422493 -16.33848199740359 0 1 1
4807 48 3 0.083 -7.645440746709658 -11.160933840487363 -20.20767576759189 0 0 1
4224 42 2 -0.023 -12.088717515129417 -10.076670936898047 -22.321782912280874 0 0 1
915 10 2 -0.063 -15.115679829150606 -13.657570890258098 -22.075822435036727 0 0 0
917 10 3 0.079 -14.575417862293415 -13.215896692729634 -21.20961811896634 0 0 0
4197 42 3 0.083 -14.6083201003803 -8.39970776866526 -17.49557600120127 0 0 1
4226 42 3 0.083 -10.985917945979768 -9.965302345434681 -22.548614370014263 0 0 1
206 3 3 0.093 -14.917065226806065 -16.25972590327065 -16.660734715077155 0 0 0
4225 42 3 0.083 -12.585620707157728 -10.955002052910391 -22.81523363151583 0 0 1
4815 48 3 0.082 -9.954015694915087 -14.981988109070922 -20.88814039813398 0 0 1
4811 48 3 0.082 -8.505068993240922 -13.149045838415821 -19.18855431149857 0 0 1
10489 230 9 0.41 -20.692182082555295 -4.207545616052872 -10.867718465526869 1 0 -1
1462 15 2 -0.023 -6.693278298214267 -22.126305341411904 -22.770441135010028 0 0 1
10353 185 8 -0.82 -2.447540994742031 -21.36939516467638 -4.3449513729831 0 0 0
3815 38 3 0.082 -11.105031924845983 -22.934184495374062 -22.371833200566844 0 1 1
3632 36 5 -0.019 -5.993239976648184 -10.189651615618631 -22.382368261834326 0 0 1
165 2 3 0.082 -12.086375885402997 -1.5228691996490689 -7.202592474098093 0 0 0
4801 48 3 0.083 -8.062303155443004 -9.104898740544758 -16.396267655687137 0 0 1
1648 17 3 0.082 -3.3351162644731147 -10.929891636843141 -22.749005876792133 0 0 1
4804 48 3 0.083 -8.481705880453612 -8.428445833606808 -19.042206397545357 0 0 1
4802 48 2 -0.023 -7.8529192509487515 -9.231867825359052 -18.576093215018336 0 0 1
4799 48 2 -0.023 -7.374486438321998 -8.727481461239238 -17.183763526615852 0 0 1
4796 48 3 0.083 -6.113317670030639 -10.978786478948367 -17.020141435631345 0 0 1
4803 48 3 0.083 -6.939403705794778 -9.353955985873903 -19.212755922281033 0 0 1
4797 48 3 0.083 -4.658640165496614 -10.570806602763655 -16.15207882741972 0 0 1
4798 48 1 -0.276 -6.010432943247313 -8.968552433318216 -16.78233098962809 0 0 1
4840 48 1 -0.295 -4.154418411885093 -15.169157442502541 -19.471571921947692 0 0 1
4848 48 4 0.211 -4.22975708234685 -10.822069207335804 -19.54424530712951 0 0 1
4841 48 2 -0.063 -4.813995829593786 -13.976160124751752 -19.147462795682618 0 0 1
4844 48 5 -0.019 -4.284256671888823 -12.838773324387928 -19.91921028086455 0 0 1
4847 48 7 -0.328 -4.764722920853075 -11.672902789277725 -19.317243522988715 0 0 1
4842 48 3 0.079 -4.712822751903616 -13.802312190696588 -18.046229091913787 0 0 1
4843 48 3 0.079 -5.910979839309899 -13.97197778035989 -19.351324211529942 0 0 1
357 4 3 0.083 -18.61181575557009 -0.28890483963031244 -10.869087384833982 0 0 0
4846 48 3 0.093 -3.165393005992623 -12.788758894479622 -19.83981129344769 0 0 1
4795 48 2 -0.023 -5.735435527313776 -10.290740595283662 -16.231962499152555 0 0 1
4845 48 3 0.093 -4.656829438469401 -12.952718521435962 -20.96484641721659 0 0 1
7499 75 3 0.082 -1.599778754016267 -12.10554390130325 -18.424530796108517 0 0 0
7503 75 3 0.082 -2.8021120339681715 -10.276835727932044 -17.749659509258564 0 0 0
3626 36 3 0.08400000000000001 -3.4845790564973775 -8.79755441913248 -21.345906333041338 0 0 1
3625 36 2 -0.021 -4.126473078929379 -7.903047486282389 -21.496745776031617 0 0 1
1659 17 3 0.083 -6.105850054418326 -14.8823819341778 -22.81210800251995 0 0 1
3628 36 1 -0.295 -5.443024412472688 -8.133215331484758 -21.109293420803798 0 0 1
3191 32 3 0.083 -8.8132385633788 -22.318141696676413 -6.871725528246646 0 1 0
3627 36 3 0.08400000000000001 -4.110545380111638 -7.54288701339215 -22.552120680580156 0 0 1
7507 75 3 0.082 -2.8491051392189455 -8.20350289724696 -17.07099538538513 0 0 0
2508 25 3 0.083 -7.875682338834304 -0.8170666158399378 -8.459280428395692 0 0 0
7505 75 2 -0.023 -1.795740529997392 -8.163237871715753 -16.68832172542272 0 0 0
10449 217 8 -0.82 -1.1068195905380058 -9.516538335550957 -20.27971969846393 1 0 0
1647 17 2 -0.023 -2.3498437882625787 -11.42379489547963 -22.58218112096933 0 0 1
1645 17 3 0.082 -2.1287099346636467 -8.933835856868377 -22.73292059967831 0 0 1
2887 29 2 -0.023 -2.705367797135029 -5.205649099032549 -8.256219192831008 0 0 0
4497 45 3 0.083 -21.300085306329187 -21.43609847941658 -5.027767920022292 0 1 0
7495 75 3 0.082 -3.4277584605815363 -12.688501716906643 -16.984082872684866 0 0 0
7504 75 1 -0.283 -1.0806080792915225 -9.291967632665713 -17.15766629020957 0 0 0
7498 75 2 -0.023 -1.1367561438545408 -11.733881647856276 -17.46814368174375 0 0 0
7501 75 2 -0.023 -1.913926433666088 -10.4445857212879 -17.079592428207675 0 0 0
7506 75 3 0.082 -1.7918129913407554 -8.25936968845722 -15.565391092929115 0 0 0
3633 36 3 0.093 -5.411663837651787 -10.615150532295425 -21.545407817732794 0 0 1
1649 17 3 0.082 -2.142276125124514 -11.518302741083547 -21.489827849203483 0 0 1
3629 36 2 -0.063 -6.305541804799059 -8.69358032581438 -22.108305479588115 0 0 1
5006 50 3 0.083 -0.8069619739466525 -16.892548887930023 -19.482203345022466 0 0 0
7594 76 3 0.083 -0.5594505295716985 -19.67804303982073 -3.7883966208026543 0 1 -1
1134 12 1 -0.283 -13.29587151967956 -10.19880613034427 -0.8451763256400611 0 0 0
4060 41 2 -0.023 -18.14282892320866 -0.4734728473554597 -19.71901252448567 0 0 1
983 10 3 0.082 -22.773871509723794 -4.375632477251212 -20.941586468756572 0 0 0
355 4 2 -0.023 -17.71656779668676 -0.28171465587976385 -11.541828806369644 0 0 0
2791 28 3 0.082 -22.253201219341953 -20.89939174052895 -12.117143425102377 0 1 0
580 6 3 0.082 -22.294262727437957 -7.0392860875896375 -18.83022597149226 0 0 0
581 6 2 -0.023 -21.657844881908996 -7.233909566238097 -16.788300842369356 0 0 0
579 6 3 0.082 -20.706510753135053 -7.901381260036281 -18.7022936914406 0 0 0
563 6 1 -0.285 -16.080856369805968 -3.613930831502447 -22.987659737368343 0 0 0
4057 41 2 -0.023 -16.950871553484365 -0.6831871559251326 -18.893163556809654 0 0 1
570 6 1 -0.284 -17.606678556522688 -5.229615397926597 -20.14623351328589 0 0 0
578 6 2 -0.023 -21.305692763389334 -7.035303041854846 -18.28756357962758 0 0 0
577 6 1 -0.283 -20.82771594238514 -5.670467069104554 -18.54245510966078 0 0 0
574 6 2 -0.023 -19.443863900845017 -5.462701294230712 -18.291180113671572 0 0 0
571 6 2 -0.023 -18.79761824970138 -4.641415015531194 -19.447637808879698 0 0 0
572 6 3 0.082 -19.601917158792826 -4.591821983957498 -20.236017496919118 0 0 0
573 6 3 0.082 -18.635885605026516 -3.576726449343454 -19.10547832664828 0 0 0
4056 41 1 -0.283 -17.207479224259632 -1.8010427901529198 -17.97405506715823 0 0 1
567 6 2 -0.023 -16.68184886936605 -4.2128074568375595 -20.6756503581758 0 0 0
564 6 2 -0.023 -16.074095852667753 -4.700356129516116 -22.049930456454558 0 0 0
576 6 3 0.082 -18.93422985847696 -6.464855972690078 -18.324738854820996 0 0 0
575 6 3 0.082 -19.3116141336908 -4.937201433429941 -17.310758874924257 0 0 0
568 6 3 0.082 -17.130123491789323 -3.183975304672842 -20.701227344556408 0 0 0
566 6 3 0.083 -16.556107846820257 -5.658252927551118 -22.3543853289622 0 0 0
4050 41 2 -0.021 -16.169474408662886 -3.0947423349178536 -16.134589850978493 0 0 1
583 6 3 0.082 -21.274699691640812 -6.331113831736559 -16.25874254145047 0 0 0
569 6 3 0.082 -15.908919682489113 -4.335087436559252 -19.889567710291438 0 0 0
4062 41 3 0.082 -18.135946820299125 -1.357554450755277 -20.393274090462004 0 0 1
4122 41 3 0.082 -21.009832994854357 -0.7176155298733562 -17.009166185301567 0 0 1
5564 56 1 -0.295 -7.103059951221219 -22.764371610767725 -19.084711732495187 0 0 0
565 6 3 0.083 -14.978665351966898 -4.910112281574676 -21.886373851017506 0 0 0
4051 41 3 0.08400000000000001 -17.069619452472917 -3.103677361947433 -15.458543099738788 0 0 1
4823 48 2 -0.023 -10.622656825653916 -17.445059209337327 -23.0364643058227 0 0 1
4194 42 3 0.083 -15.583727525538242 -6.487615647680375 -19.39591993138542 0 0 1
4196 42 2 -0.023 -15.380612127465856 -7.573858043186847 -17.489383633268545 0 0 1
10392 198 8 -0.82 -20.292135046553152 -2.3984297960981316 -21.265569137993257 0 -2 0
4053 41 2 -0.023 -16.157094770927756 -1.8645364839114613 -17.025291945838095 0 0 1
4055 41 3 0.082 -16.264725677845096 -0.904366924974962 -16.45070077048562 0 0 1
4195 42 3 0.083 -15.514713638038911 -5.547314992957379 -17.868113227954915 0 0 1
4193 42 2 -0.023 -15.053280215494564 -6.422186923334525 -18.41579904415401 0 0 1
4058 41 3 0.083 -16.03815593647357 -0.8010519584761724 -19.527130473477428 0 0 1
164 2 3 0.082 -13.16688952126693 -0.17028261949434054 -7.777242885961007 0 0 0
2601 26 2 -0.023 -2.1362269692719487 -20.446559742700636 -0.8686335496659368 0 1 0
2929 29 4 0.211 -12.31165757729908 -7.977077673265486 -2.416032077711126 0 0 0
4120 41 2 -0.023 -20.268583453480122 -1.2997495598555844 -16.40591521004935 0 0 1
10394 198 9 0.41 -20.69312050328763 -1.8361499443371763 -20.52377022718209 0 -2 0
3504 35 3 0.082 -12.118797621055599 -0.21411323679546612 -20.116775329044206 0 0 1
10393 198 9 0.41 -20.98308293814314 -2.763162013488863 -21.919845648996084 0 -2 0
4119 41 1 -0.283 -19.708711928190137 -0.34591128883818456 -15.537825939419847 0 0 1
4974 50 3 0.082 -4.030540723237028 -22.052576877323393 -15.54571590359631 0 0 0
3508 35 3 0.082 -14.18508045524674 -2.8274152162564086 -21.369608734329976 0 0 1