LAMMPS data file via write_data, version 2 Aug 2023, timestep = 50000, units = real

10547 atoms
9 atom types
10298 bonds
7 bond types
18449 angles
8 angle types
21000 dihedrals
4 dihedral types

-23.099865641009824 23.099865641009824 xlo xhi
-23.099865641009824 23.099865641009824 ylo yhi
-23.099865641009824 23.099865641009824 zlo zhi

Masses

1 15.9994
2 12.011
3 1.008
4 1.008
5 12.011
6 15.9994
7 15.9994
8 15.9994
9 1.008

Pair Coeffs # lj/cut/coul/long

1 0.2526 2.8492
2 0.0663 3.5812
3 0.0283 2.3734
4 0 0
5 0.245 2.8114
6 0.1195 3.1
7 0.1195 3.1
8 0.155 3.165
9 0 0

Bond Coeffs # harmonic

1 1109.29 1.12
2 399.792 1.43
3 299.844 1.52
4 400.034 1.53
5 310.707 1.41
6 179.254 0.971
7 1059.16 1.012

Angle Coeffs # harmonic

1 47.694 109.5
2 55.1271 109.5
3 47.635 109.6
4 55.1139 111
5 54.9931 110.3
6 180.46 109
7 30.1731 110
8 75.9 113.24

Dihedral Coeffs # harmonic

1 0.3011 1 3
2 1.4149 1 3
3 0.239 -1 3
4 0 1 1

Atoms # full

76 1 2 -0.023 -18.752694450772772 -20.03200668234282 -17.086192225556953 0 0 0
77 1 3 0.082 -18.742942611636312 -20.150944054535998 -18.200523824308313 0 0 0
73 1 2 -0.023 -18.691478710749497 -18.613827992565042 -16.493893875217672 0 0 0
72 1 1 -0.283 -20.009571116889163 -18.22162054982231 -16.16772017916257 0 0 0
75 1 3 0.082 -18.190276323841545 -17.863404871191946 -17.17035880786674 0 0 0
74 1 3 0.082 -18.18224193290703 -18.675691055660813 -15.50920718691814 0 0 0
68 1 3 0.082 -18.229304685996645 -15.826254807580238 -15.659997029974742 0 0 0
78 1 3 0.082 -19.791304949828202 -20.396273193088234 -16.93146294841099 0 0 0
79 1 1 -0.283 -18.152872038881913 -21.010435771549115 -16.256369435443954 0 0 0
217 3 3 0.082 -16.67302347614005 -19.307257164141785 -19.215906314733807 0 0 0
80 1 2 -0.023 -17.521216266662314 -22.078567305270674 -17.078933369620703 0 0 0
81 1 3 0.082 -16.61432239893731 -21.561599877499887 -17.48897076999413 0 0 0
69 1 2 -0.023 -20.24831095358681 -16.85362325499717 -15.961584774005598 0 0 0
70 1 3 0.082 -20.54816137444539 -16.438662832024512 -16.95620418481804 0 0 0
66 1 2 -0.023 -19.16433378204596 -16.071290513266874 -15.111982819214777 0 0 0
6978 70 1 -0.295 -18.026424832035083 -21.103631257230447 -20.69787950370005 1 0 1
6977 70 3 0.079 -16.033775747747008 -21.96783026637662 -20.537147072881815 1 0 1
604 6 3 0.093 -18.783157841152075 -16.49893224303134 -19.176739115401936 0 0 0
603 6 3 0.093 -19.935368705099993 -17.53154407288397 -20.28690067672381 0 0 0
6979 70 2 -0.021 -18.694014078727545 -20.448977972263414 -21.676684144102328 1 0 1
6981 70 3 0.08400000000000001 -18.403815471347503 -19.361792980691835 -21.69182426042142 1 0 1
6975 70 2 -0.063 -16.872967356018584 -21.771450722185335 -21.260498758956217 1 0 1
6982 70 2 -0.023 -20.178638211344406 -20.51719307707101 -21.32440981951997 1 0 1
6988 70 3 0.083 -22.673807387243066 -20.180873402336456 -21.48567537160974 1 0 1
82 1 3 0.082 -18.276516340106802 -22.337612398053178 -17.8787402994841 0 0 0
10323 175 8 -0.82 -21.531725325329493 -2.130619057416581 -0.5254786155810933 1 0 -1
5835 58 3 0.082 -22.370189294965996 -19.017015569021574 -15.891700198014686 1 0 1
215 3 2 -0.023 -15.768340948775117 -18.64850034126178 -19.0632896682918 0 0 0
605 6 7 -0.328 -18.48384558350527 -16.43379095730815 -21.217277202171132 0 0 0
606 6 4 0.211 -18.94688746128951 -16.63140457528446 -22.0225375329622 0 0 0
602 6 5 -0.019 -19.32064367131406 -16.616286975351308 -20.139379566295222 0 0 0
6980 70 3 0.08400000000000001 -18.468931746884714 -20.95064386650436 -22.66280322211439 1 0 1
1416 15 6 -0.328 -4.530424697236139 -12.051796961108218 -22.910227975137968 0 0 1
6985 70 1 -0.283 -20.78914151451672 -20.153689775138513 -22.51873392275344 1 0 1
1821 19 5 -0.019 -13.078109527721683 -13.566929047067198 -22.272385695737526 0 0 1
221 3 3 0.083 -16.050019952823224 -18.961665920229393 -21.56576925498747 0 0 0
216 3 3 0.082 -15.973796533313841 -17.57730507915514 -19.281549330404786 0 0 0
211 3 1 -0.295 -15.716542599796508 -17.464434882935073 -16.957087702702196 0 0 0
5120 51 3 0.082 -20.922008409995218 -0.5174586243742496 -13.103728274565048 1 0 0
1825 19 3 0.079 -10.832311797826227 -13.831210683321839 -22.49467535584523 0 0 1
600 6 3 0.079 -19.69956843626116 -14.500994805927803 -20.14773785857865 0 0 0
601 6 3 0.079 -20.981918418797832 -15.418806823053115 -21.03749276833603 0 0 0
599 6 2 -0.063 -20.334261156425352 -15.422898270660522 -20.136018063760478 0 0 0
598 6 1 -0.295 -21.230237797117148 -15.392360864200754 -18.995076940055217 0 0 0
4497 45 3 0.083 -19.094050427166636 -19.487594457293685 -2.2941920765513935 0 1 0
5838 58 3 0.082 -22.086764111071535 -18.7434055768828 -18.62463152229982 1 0 1
6983 70 3 0.082 -20.397856483405704 -19.829054673422164 -20.47125289336478 1 0 1
133 2 3 0.082 -1.1087387133696396 -0.701282791425804 -7.441877957149945 0 0 0
6986 70 2 -0.023 -22.156820128336886 -19.64514040654201 -22.32024532257933 1 0 1
2780 28 3 0.083 -21.23066634082412 -21.868942703200545 -18.182166565450764 0 1 0
3418 34 3 0.083 -19.173460924951677 -1.691309107714055 -2.189853386158262 0 0 0
213 3 3 0.08400000000000001 -15.625537873768632 -19.56063108372268 -16.940133728644636 0 0 0
212 3 2 -0.021 -15.24503177852306 -18.69983755029638 -17.580840566472997 0 0 0
209 3 3 0.079 -15.140296608069193 -18.379511452473032 -15.131226414451689 0 0 0
219 3 2 -0.023 -14.991384340921314 -18.718293350798902 -21.322415598720667 0 0 0
218 3 1 -0.283 -14.714159051854601 -19.062418923758198 -19.98031050862079 0 0 0
208 3 2 -0.063 -14.938292768045503 -17.471207249740537 -15.761225214724956 0 0 0
210 3 3 0.079 -13.853225019783107 -17.47780326233036 -16.016178265895483 0 0 0
3824 38 2 -0.023 -12.96353864924752 -21.870846613884755 -17.763962190313425 0 1 1
3827 38 2 -0.021 -11.94553915486177 -20.963386171416865 -17.129042068905363 0 1 1
3828 38 3 0.08400000000000001 -11.746509334236341 -20.04689766318647 -17.742700393650125 0 1 1
3829 38 3 0.08400000000000001 -10.947563804040403 -21.404788061282808 -16.899187134992587 0 1 1
3830 38 1 -0.295 -12.439024013130002 -20.545352760199815 -15.836050113903303 0 1 1
4825 48 3 0.082 -9.368352113901631 -21.45668696403762 -18.58010345701778 0 0 1
4813 48 2 -0.023 -10.993958613898217 -17.694751897781654 -20.397941407900063 0 0 1
4826 48 1 -0.283 -7.950456253143129 -22.705391143862748 -19.667777377360967 0 0 1
4817 48 3 0.082 -8.971380564511646 -18.118059371708643 -20.492658917391264 0 0 1
4816 48 2 -0.023 -9.906162710899979 -18.693239979510786 -20.749105125351768 0 0 1
4815 48 3 0.082 -11.642900289946171 -18.24477867906905 -19.654527816079394 0 0 1
4819 48 1 -0.283 -9.963649781380665 -19.852937018108634 -19.971450543834937 0 0 1
3822 38 3 0.083 -12.948885643760036 -21.139814155372797 -20.49610922267105 0 1 1
4814 48 3 0.082 -11.698904253708388 -17.475639209247657 -21.244911990601537 0 0 1
2721 27 3 0.079 -0.016020212638522935 -21.02357549330153 -10.996700200630436 0 1 0
214 3 3 0.08400000000000001 -14.12533390681622 -18.588110383785725 -17.662735133138426 0 0 0
7476 75 6 -0.328 -8.7421741934497 -19.21223383437986 -17.659554195651573 0 0 0
7477 75 5 -0.019 -7.37491589786603 -19.026571312805114 -17.61929144634241 0 0 0
4818 48 3 0.082 -10.114534171543271 -19.042456481676247 -21.785422853251912 0 0 1
7479 75 3 0.093 -6.92179663916783 -19.435000038054987 -16.68203080749053 0 0 0
4823 48 2 -0.023 -9.13110376260546 -22.016383850127188 -19.530309881305747 0 0 1
7475 75 4 0.211 -9.103210849214916 -19.19911870773483 -18.53233000682212 0 0 0
4822 48 3 0.082 -9.493904433359544 -21.30989492061394 -21.567426185869802 0 0 1
4820 48 2 -0.023 -9.180828227588847 -20.910651915028478 -20.546237025891912 0 0 1
4821 48 3 0.082 -8.098033977014595 -20.69886102267667 -20.65934791463596 0 0 1
3539 36 3 0.093 -4.529870063974283 -0.1801950326095465 -19.86165174161662 0 0 1
3832 38 3 0.079 -11.875227889759902 -18.48801676728623 -15.754987887104383 0 1 1
7478 75 3 0.093 -6.980860170124483 -19.502690493219472 -18.535829340134036 0 0 0
220 3 3 0.083 -14.868065333891222 -17.601254064603605 -21.35958669108352 0 0 0
7481 75 3 0.079 -7.722960295490575 -16.9943502170516 -16.85821779881274 0 0 0
7480 75 2 -0.063 -7.056914407821857 -17.506182222567034 -17.611987298632428 0 0 0
7482 75 3 0.079 -7.2556306929498025 -17.19450759440509 -18.666967824306468 0 0 0
4812 48 1 -0.284 -10.549216010305834 -16.527995490938824 -19.678561714285337 0 0 1
4811 48 3 0.082 -11.711450499402261 -17.17491402993412 -18.053243710156003 0 0 1
4810 48 3 0.082 -12.361689891785716 -15.748334129751257 -19.021356689720985 0 0 1
4809 48 2 -0.023 -11.445290855468725 -16.215840985574467 -18.593544118726598 0 0 1
4805 48 1 -0.285 -11.542075498177613 -15.195185878462253 -16.519241905800268 0 0 1
4802 48 2 -0.023 -10.752325897158892 -15.141149678545704 -15.289292768936715 0 0 1
3831 38 2 -0.063 -11.647788806316207 -19.455597957495215 -15.227435977283355 0 1 1
10254 152 8 -0.82 -6.611485451799574 -22.47993973931429 -14.9853812773956 0 1 0
1838 19 2 -0.023 -9.822211432071068 -6.647775318873901 -22.737557331493182 0 0 1
1806 18 3 0.082 -10.650494540882615 -16.192454904534394 -0.6226287399689099 0 0 0
223 3 3 0.082 -14.251530487974598 -20.30899424057948 -22.423054357853005 0 0 0
4804 48 3 0.083 -9.905941439651304 -15.888531629069547 -15.239396623059493 0 0 1
224 3 3 0.082 -12.921181250616243 -19.4190733873472 -21.69443404498378 0 0 0
1662 17 3 0.083 -9.352474404861027 -15.96220275495844 -22.545731670362237 0 0 1
222 3 2 -0.023 -13.915273376463308 -19.276450716347547 -22.20416373941599 0 0 0
4735 47 3 0.082 -5.275065455688388 -7.20002112260684 -0.0207881578528486 0 0 0
1663 17 3 0.083 -7.734109060132042 -16.42276004161996 -21.897487117848268 0 0 1
8498 85 3 0.082 -0.15633706189235141 -3.7102130542070064 -14.52891737138082 0 0 0
4847 48 7 -0.328 -4.115915716751516 -16.8942121086231 -21.559348957310917 0 0 1
4843 48 3 0.079 -4.637735759823489 -19.420327799912855 -20.899622523922574 0 0 1
4839 48 3 0.08400000000000001 -4.765353501051379 -19.854593437715057 -17.793666773124457 0 0 1
4833 48 1 -0.283 -4.887050277933561 -22.648139502552276 -18.13812365889901 0 0 1
4838 48 3 0.08400000000000001 -3.2015184560634005 -20.675149432096564 -17.459434682944362 0 0 1
4835 48 3 0.082 -5.485676184119281 -21.14554377209917 -19.479123124515443 0 0 1
4834 48 2 -0.023 -4.561119020287286 -21.578530449261457 -19.03781676252045 0 0 1
4836 48 3 0.082 -3.9083212898263753 -21.97795079571042 -19.854763597781456 0 0 1
4840 48 1 -0.295 -3.2635378387384613 -19.57988992536615 -19.282778763583224 0 0 1
4837 48 2 -0.021 -3.9522454745690787 -20.42902350657036 -18.278789637552745 0 0 1
4841 48 2 -0.063 -4.137677962870299 -18.7708466378621 -20.14220646332886 0 0 1
4844 48 5 -0.019 -3.2414343338997185 -17.840727290837577 -20.941159088439075 0 0 1
4842 48 3 0.079 -4.924669448546702 -18.120117074194024 -19.634823492440717 0 0 1
4845 48 3 0.093 -2.669876297276346 -18.422553446826072 -21.713561220167914 0 0 1
4846 48 3 0.093 -2.510037063828694 -17.311445160829777 -20.282776104092473 0 0 1
4848 48 4 0.211 -3.7719439273032656 -16.211340111229905 -22.113497928426625 0 0 1
4743 47 5 -0.019 -0.8384033609137802 -6.52941423331616 -2.1737565613403227 0 0 0
5006 50 3 0.083 -0.5733529964524777 -19.01623603456342 -19.527600350660407 0 0 0
4999 50 3 0.083 -2.025684922247951 -20.996463683854046 -21.03846155437522 0 0 0
4969 50 2 -0.023 -0.007292371617836579 -21.146210332293624 -16.433829889887427 0 0 0
4971 50 3 0.082 -0.022786750097694153 -20.716943224925906 -17.470570140528437 0 0 0
4993 50 1 -0.285 -3.0310179309987113 -22.21618329402861 -22.606227104475188 0 0 0
4964 50 3 0.082 -0.11055308674621855 -16.95228526997175 -15.675384585056182 0 0 0
4966 50 2 -0.023 -0.45091496862638536 -20.176275047190106 -15.382003187042523 0 0 0
4962 50 2 -0.023 -0.628537071853895 -17.806589978235447 -15.203032798742342 0 0 0
2426 25 6 -0.328 -3.3402134773509147 -14.346167630861963 -19.763198607407624 0 0 0
7483 75 1 -0.295 -5.652925017352057 -17.311970603484315 -17.343201406689804 0 0 0
7486 75 3 0.08400000000000001 -4.039653343500003 -15.965016488128878 -17.524271239724477 0 0 0
2425 25 4 0.211 -2.526535413215882 -14.89597349195484 -20.11317077645419 0 0 0
4960 50 3 0.08400000000000001 -2.276264524737119 -16.57185295967826 -15.908582473121317 0 0 0
4972 50 1 -0.283 -0.9365496522086865 -22.29038371253494 -16.403489544018953 0 0 0
4063 41 1 -0.283 -19.859141918235277 -0.14750930725736922 -21.719953253427423 0 0 1
7484 75 2 -0.021 -5.1663326424476494 -16.01508114566862 -17.64187434645635 0 0 0
3821 38 3 0.083 -14.239383637715823 -22.33620274707462 -19.96270152369402 0 1 1
4965 50 1 -0.283 -0.37277225687011395 -18.933520288899572 -16.072559448851703 0 0 0
1661 17 2 -0.023 -8.251016332921566 -15.775469722407033 -22.63059775359311 0 0 1
10255 152 9 0.41 -6.368355801888924 -21.504982637175516 -14.849530577641044 0 1 0
5000 50 1 -0.276 -0.5898619002286019 -19.776547618861276 -21.939782406101305 0 0 0
10283 161 9 0.41 -2.3496238193222254 -21.50261516553512 -13.73255501681307 0 1 1
2435 25 3 0.08400000000000001 -0.629027818851128 -11.992315222278094 -17.099959476316968 0 0 0
4975 50 3 0.082 -1.9206023104410939 -22.64765848383506 -18.218596921499795 0 0 0
144 2 3 0.083 -5.306102086710435 -0.47904960003535635 -10.744337136587884 0 0 0
4997 50 2 -0.023 -1.1420894613160506 -21.06535658953613 -21.735530914221016 0 0 0
4963 50 3 0.082 -0.2763535862197095 -17.98648253787421 -14.160344240229142 0 0 0
2422 24 3 0.093 -2.9454406358184784 -0.6280449972143423 -2.542018659273861 0 0 0
5848 58 3 0.08400000000000001 -22.77237610672797 -15.768284930554875 -22.34421899413248 1 0 1
10104 102 8 -0.82 -20.88113688148859 -13.257893661548161 -22.671056414616803 1 -1 0
1419 15 3 0.093 -4.647783636941192 -13.788251879562878 -21.694320615384747 0 0 1
1415 15 4 0.211 -4.585909296414535 -11.531909439434815 -22.134212528198802 0 0 1
566 6 3 0.083 -21.572798102228603 -6.693138308066903 -22.389173035481694 0 0 0
10338 180 8 -0.82 -22.825502437135313 -11.619947808961378 -21.401004160207805 1 -2 0
567 6 2 -0.023 -20.87556709013101 -8.676988983134391 -21.691925323999385 0 0 0
595 6 2 -0.021 -21.728048089188636 -14.063486216971148 -18.751602566582523 0 0 0
4211 42 3 0.082 -17.425863224445084 -13.528637180290836 -19.517449428331368 0 0 1
4206 42 1 -0.284 -17.78104203026835 -11.400516096896277 -18.373254655069164 0 0 1
4212 42 3 0.082 -18.435964730393778 -14.496602974207164 -18.32365175075766 0 0 1
4207 42 2 -0.023 -17.740500082465168 -12.57607817500108 -17.550018129430306 0 0 1
4210 42 2 -0.023 -17.55399303030356 -13.83892816021855 -18.45782915401474 0 0 1
4208 42 3 0.082 -18.69645488505559 -12.646472495690709 -16.985745714758053 0 0 1
4209 42 3 0.082 -16.955640895414433 -12.58542718593707 -16.774429492695333 0 0 1
4213 42 1 -0.283 -16.45243704429204 -14.670642352465578 -17.957364317797172 0 0 1
4216 42 3 0.082 -14.569074851444828 -15.46913770056322 -18.479430237861045 0 0 1
4205 42 3 0.082 -16.574493728987207 -10.102589182378523 -17.430744472790728 0 0 1
4203 42 2 -0.023 -17.68726229661808 -10.209318791617793 -17.58541055684684 0 0 1
4236 42 3 0.079 -14.444985175465293 -5.868503401377964 -22.747070833848223 0 0 1
4215 42 3 0.082 -15.328649764919298 -14.62737918136502 -19.786659825405295 0 0 1
4214 42 2 -0.023 -15.20525095649258 -14.575192102970892 -18.68015065070515 0 0 1
571 6 2 -0.023 -22.284351990825357 -7.580466286959046 -20.0580644704774 0 0 0
570 6 1 -0.284 -22.11054724656793 -8.593558941508514 -21.053575901693375 0 0 0
4204 42 3 0.082 -18.306424245597125 -10.214686503844618 -16.648734013925303 0 0 1
596 6 3 0.08400000000000001 -20.84770543972334 -13.402948496166792 -18.60419799909077 0 0 0
592 6 2 -0.023 -22.552568077289234 -14.134068712369174 -17.43239518656937 0 0 0
1823 19 3 0.093 -13.465689282335006 -12.711994283301014 -22.907672123240705 0 0 1
2874 29 3 0.083 -0.7492626494297774 -2.1434293764125805 -0.5811794304898541 0 0 0
594 6 3 0.082 -22.020306840376023 -14.664947674996673 -16.601058686978778 0 0 0
4233 42 3 0.08400000000000001 -16.49344634745895 -8.88215886925726 -23.052531243044 0 0 1
573 6 3 0.082 -21.389558985853444 -6.9203871604985245 -20.060521158504805 0 0 0
568 6 3 0.082 -19.970386127864113 -8.71126836883074 -21.036161543909575 0 0 0
4223 42 3 0.082 -15.963301321772965 -11.777712507325386 -19.96596765156583 0 0 1
4231 42 2 -0.021 -15.980300707452205 -7.957746225988069 -22.70873605382724 0 0 1
4232 42 3 0.08400000000000001 -16.82408263371834 -7.345813634346447 -22.260774725419424 0 0 1
569 6 3 0.082 -20.92412909720918 -9.66164434871845 -22.25604242451365 0 0 0
10340 180 9 0.41 -22.358006694796597 -10.782742555531678 -21.032453215080118 1 -2 0
4200 42 2 -0.023 -18.062343908489005 -9.195844594732698 -18.631882266569935 0 0 1
4201 42 3 0.083 -17.65435605103033 -9.596617383220206 -19.58547573833857 0 0 1
4202 42 3 0.083 -19.186948092721327 -9.178979878070395 -18.69380602380857 0 0 1
564 6 2 -0.023 -20.82718224486419 -7.480701875740429 -22.649159266702245 0 0 0
597 6 3 0.08400000000000001 -22.342248481343326 -13.678455468733016 -19.598840950534637 0 0 0
3417 34 3 0.083 -20.042380924862563 -0.1934155164492637 -1.880218217912251 0 0 0
587 6 3 0.082 -20.452954692804173 -11.16186931964528 -16.7724820615701 0 0 0
585 6 2 -0.023 -21.21273625234291 -11.14546444130424 -15.928162928547195 0 0 0
588 6 2 -0.023 -21.654510807093043 -12.598141476717407 -15.919241269432144 0 0 0
3416 34 2 -0.023 -19.524160960457493 -0.7646965288586323 -2.6928287921970053 0 0 0
2716 27 2 -0.021 -0.10296312552324594 -23.0239621757599 -12.415820033503396 0 1 0
4045 41 3 0.093 -11.529198384946683 -0.7212543934208284 -17.833694398208596 0 0 1
910 10 4 0.211 -15.262271403849113 -12.150232324875754 -22.293942177301236 0 0 0
591 6 1 -0.283 -22.689793283900705 -12.754627279348814 -17.009887358226592 0 0 0
4807 48 3 0.083 -9.67200650028446 -15.232688832320889 -17.704310211299536 0 0 1
4219 42 3 0.082 -14.891518920218827 -12.718350790468591 -17.59015190798273 0 0 1
4217 42 2 -0.023 -14.37611508986438 -13.423446021149607 -18.27529218646579 0 0 1
1833 19 3 0.082 -11.089151694286855 -9.652521057120351 -20.448098647088987 0 0 1
4808 48 3 0.083 -10.958261836623324 -14.163500223269015 -18.301932121571127 0 0 1
4218 42 3 0.082 -13.369693535110331 -13.711357229473208 -17.891572577357884 0 0 1
4492 45 2 -0.023 -20.637425302014066 -18.25581344479505 -0.272155611677551 0 1 0
4220 42 1 -0.283 -14.060264398441168 -12.529458631204369 -19.344517637311895 0 0 1
4225 42 3 0.083 -13.550801721392553 -10.789811266140516 -21.176634202397814 0 0 1
4228 42 2 -0.023 -14.865533761928617 -8.41922276950711 -21.726353556383078 0 0 1
4227 42 1 -0.283 -15.26647950223369 -9.597228963377422 -21.124237057890568 0 0 1
4222 42 3 0.082 -15.289061425470496 -10.97243490829336 -18.584309882828226 0 0 1
4221 42 2 -0.023 -14.983742021966918 -11.42680837970178 -19.567461524842447 0 0 1
4806 48 2 -0.023 -10.774656267714372 -15.1222559346918 -17.734036216579867 0 0 1
4226 42 3 0.083 -13.663314361225892 -9.662253629949877 -19.756435107963128 0 0 1
4224 42 2 -0.023 -14.26548910894921 -10.34223562908774 -20.44154435809141 0 0 1
10494 232 8 -0.82 -8.701079039304515 -10.921872210771198 -16.851710902028476 0 0 0
10449 217 8 -0.82 -11.080685927545312 -11.438402949392628 -18.021876393558912 1 0 0
10450 217 9 0.41 -11.788719271603583 -11.533378605381671 -18.757399679387603 1 0 0
10451 217 9 0.41 -10.853605071273025 -10.46371629107126 -17.83640179465605 1 0 0
10495 232 9 0.41 -8.078636055299048 -11.014461939982128 -17.6549990121013 0 0 0
10260 154 8 -0.82 -8.364895081917485 -8.343896884852358 -16.46836073309175 -1 1 0
10496 232 9 0.41 -9.599340954107019 -11.35417772518951 -17.09265320073458 0 0 0
10275 159 8 -0.82 -10.454214503600936 -8.376197736345055 -18.234916119327888 1 0 1
4230 42 3 0.082 -14.485080199035993 -7.5871003994129875 -21.06563430294964 0 0 1
10261 154 9 0.41 -8.371785249980324 -9.366791175493292 -16.616379681311553 -1 1 0
1658 17 3 0.083 -9.388241623240528 -14.847971420949568 -20.72719380641311 0 0 1
2823 28 3 0.079 -22.944545933697896 -10.484475748514456 -10.614576693595023 0 1 0
10277 159 9 0.41 -9.614044343342748 -8.57615894192985 -17.69061518935959 1 0 1
1822 19 3 0.093 -13.743745876357213 -13.432750660924633 -21.384518820751257 0 0 1
3636 36 4 0.211 -7.16425630321239 -7.455999695685456 -21.66435438967361 0 0 1
1656 17 3 0.082 -9.463612999205935 -12.399583409016813 -20.24489877426971 0 0 1
1832 19 3 0.082 -9.463353369564386 -10.111677678839225 -21.260532174823727 0 0 1
1654 17 2 -0.023 -8.459460995322932 -12.811994085889442 -20.539779022889796 0 0 1
4800 48 3 0.083 -9.066564020434722 -13.945633428293943 -15.563394309430379 0 0 1
4766 48 3 0.083 -12.854454482516372 -12.297137272889334 -15.94865610309521 0 0 1
1660 17 1 -0.285 -7.9885526504162225 -14.48064799743303 -22.226445052765616 0 0 1
1659 17 3 0.083 -7.688701818163658 -14.685887073518424 -20.1122175659509 0 0 1
1657 17 2 -0.023 -8.419357870239347 -14.292069572270046 -20.862473181521672 0 0 1
1655 17 3 0.082 -7.860282697144289 -12.213350477644434 -21.248122743942098 0 0 1
7503 75 3 0.082 -5.75111634556254 -8.47478477564747 -13.993477600859416 0 0 0
3635 36 7 -0.328 -6.597354762840489 -7.628524825965323 -20.942040918643535 0 0 1
4759 48 3 0.08400000000000001 -12.782551851155345 -8.231385064089805 -17.16103116959241 0 0 1
1837 19 3 0.083 -10.848751985451587 -7.239659470538074 -20.943576569852834 0 0 1
4758 48 3 0.08400000000000001 -12.121714177779978 -9.183016003785596 -15.679455459664169 0 0 1
4757 48 2 -0.021 -12.912278672081374 -8.491219342181946 -16.081219813967103 0 0 1
1826 19 3 0.079 -11.559360703016214 -14.316273774877757 -20.89097180517274 0 0 1
1831 19 2 -0.023 -10.567056579031076 -9.947874381934112 -21.399523725008482 0 0 1
345 4 3 0.083 -13.133095776196493 -0.17478952137165393 -11.552749653894045 0 0 0
10262 154 9 0.41 -7.844489710936008 -8.121256165353484 -15.617471670159498 -1 1 0
203 3 4 0.211 -14.870033148276102 -16.64097538803643 -13.252570671328643 0 0 0
1824 19 2 -0.063 -11.652237941814962 -13.587918232823878 -21.735533341534097 0 0 1
2897 29 2 -0.023 -0.20060532200403358 -4.568005499013882 -10.988657728187203 0 0 0
1835 19 2 -0.023 -10.07404513053351 -7.680978695154774 -21.62880944833931 0 0 1
1827 19 1 -0.295 -11.527249799411756 -12.29050949124669 -21.107173474644778 0 0 1
1828 19 2 -0.021 -11.168486594640147 -11.223589521537765 -22.09351919229959 0 0 1
572 6 3 0.082 -23.064577658545215 -6.793482360371961 -20.213635671988182 0 0 0
3634 36 3 0.093 -6.990009785068853 -7.031999715964837 -18.88448591350115 0 0 1
2427 25 5 -0.019 -2.9811122112921495 -13.051671868822998 -19.258887462054478 0 0 0
2428 25 3 0.093 -3.2391706635138178 -12.979472530263399 -18.14761659001147 0 0 0
7485 75 3 0.08400000000000001 -5.364233568967901 -15.760211059736346 -18.722135620351573 0 0 0
1644 17 3 0.082 -4.221158186039993 -9.139130612539098 -20.484982150386475 0 0 1
1650 17 2 -0.023 -6.280142478047932 -12.159486590800162 -19.481327375551615 0 0 1
7495 75 3 0.082 -4.2392376733083275 -11.555892145856525 -16.548860108130853 0 0 0
7499 75 3 0.082 -5.5542224346907005 -9.22419612503585 -16.55227080483104 0 0 0
1653 17 1 -0.284 -7.7035381566598 -12.443907515063682 -19.363738908938835 0 0 1
1651 17 3 0.082 -5.680186843894354 -12.632152350246695 -18.6700558801724 0 0 1
1647 17 2 -0.023 -6.0159318133099795 -10.70492232145077 -19.594370488726447 0 0 1
1642 17 3 0.082 -2.9054776475425115 -9.513471430115661 -17.85104944165564 0 0 1
1652 17 3 0.082 -5.979529515436102 -12.631225052844773 -20.455267879791187 0 0 1
1646 17 1 -0.283 -4.8553337596463315 -10.287913431514108 -18.85710947376899 0 0 1
1649 17 3 0.082 -6.889876367267966 -10.06794815328888 -19.313628795875147 0 0 1
1643 17 2 -0.023 -4.356932799470002 -9.017413456276318 -19.374124293495125 0 0 1
1648 17 3 0.082 -5.948514092898257 -10.450802208010689 -20.674723548165748 0 0 1
1640 17 2 -0.023 -2.961902900273227 -8.818549320715064 -18.729017756277422 0 0 1
1645 17 3 0.082 -4.98460243854629 -8.131431065479994 -19.100424187315244 0 0 1
7494 75 2 -0.023 -4.660344654843392 -11.758665959634483 -15.536141680940645 0 0 0
7496 75 3 0.082 -3.778956361889552 -12.164732070095308 -15.01003277888718 0 0 0
7497 75 1 -0.283 -5.254160830811202 -10.681799481195233 -14.856002718009856 0 0 0
7498 75 2 -0.023 -4.935496034420613 -9.496548033893806 -15.664140856127922 0 0 0
7500 75 3 0.082 -3.9075154038709385 -9.579457018602474 -16.056810367729216 0 0 0
2429 25 3 0.093 -3.582633869277675 -12.266496753681372 -19.77965665697033 0 0 0
1867 19 3 0.083 -0.06635849414048067 -4.36994558100438 -19.7195226067737 0 0 1
2439 25 3 0.082 -0.41288079121470034 -13.97457036291369 -15.7572979138694 0 0 0
2430 25 2 -0.063 -1.4300618131636078 -12.897047196655878 -19.517718842803497 0 0 0
1639 17 1 -0.283 -1.9835481858061428 -9.121504032869277 -19.75452908121225 0 0 1
7489 75 3 0.082 -6.780399684135368 -14.724315721465828 -17.57701178113066 0 0 0
7487 75 2 -0.023 -5.981503963422078 -14.980390296782575 -16.833485201544057 0 0 0
7490 75 1 -0.283 -5.139196740818509 -13.924967575371056 -16.434702494147356 0 0 0
7491 75 2 -0.023 -5.690911080303806 -12.835970169588844 -15.720997663056949 0 0 0
1636 17 2 -0.023 -0.6540575512617934 -9.09458256409797 -19.181872974146355 0 0 1
2431 25 3 0.079 -1.126480712500939 -11.811699017748824 -19.53545981257608 0 0 0
2433 25 1 -0.295 -0.7561800005444788 -13.61801023196136 -18.424699199867355 0 0 0
2432 25 3 0.079 -1.0266629939630967 -13.419530976643681 -20.414514641142855 0 0 0
914 10 3 0.093 -16.59260496543407 -14.069561396008925 -22.868743364964686 0 0 0
1206 12 3 0.079 -22.014367144335544 -10.985470798782293 -8.144919115230552 0 0 0
7504 75 1 -0.283 -5.149433558693556 -7.030304414138506 -15.462049213105082 0 0 0
7501 75 2 -0.023 -4.932585129647261 -8.308844294395179 -14.727962739848202 0 0 0
7488 75 3 0.082 -6.38553588561825 -15.486723401416969 -15.914210778557724 0 0 0
563 6 1 -0.285 -19.49830929194921 -6.983841692325861 -22.58719675880006 0 0 0
10475 225 9 0.41 -1.6671007013473336 -20.877516985277097 -7.2296773078654635 0 1 0
4829 48 3 0.082 -7.0485716276817065 -21.93715521560323 -17.8899988030818 0 0 1
4738 47 3 0.08400000000000001 -3.7888837532303477 -4.606844613997911 -0.2924997898383346 0 0 0
4125 41 3 0.083 -22.872052669364383 -3.6718528289155152 -21.955022042011343 0 0 1
6593 66 3 0.082 -23.087875959567675 -10.88112610486185 -4.02000219345619 1 0 0
4198 42 3 0.083 -16.800245392654908 -7.501630357216792 -20.197099025827796 0 0 1
4199 42 1 -0.285 -17.622538349436947 -7.923566304232638 -18.277424701712246 0 0 1
10256 152 9 0.41 -5.8438472470027065 -23.09087905825397 -15.235769944820017 0 1 0
4062 41 3 0.082 -19.119952296427197 -1.895209974713925 -20.94519938847069 0 0 1
4194 42 3 0.083 -17.18367079119326 -5.4796631836334235 -19.291448539856088 0 0 1
4119 41 1 -0.283 -22.93069343361882 -4.235286624791346 -18.793040397126365 0 0 1
4114 41 3 0.082 -20.446100183619986 -5.431532243955271 -17.871654725506023 0 0 1
4112 41 1 -0.283 -19.739692713062706 -3.7546324690959274 -16.80487832497481 0 0 1
4117 41 3 0.082 -22.21452419140679 -2.831211274581783 -17.607905818179404 0 0 1
3816 38 1 -0.283 -12.618619996590466 -22.296233757888785 -22.52413392352382 0 1 1
4116 41 2 -0.023 -22.03115150896269 -3.9382937583070685 -17.681957532027482 0 0 1
4113 41 2 -0.023 -20.550228610181037 -4.319320741499549 -17.918699614210713 0 0 1
4115 41 3 0.082 -20.23657717843689 -4.020970735170437 -18.95720501695796 0 0 1
4053 41 2 -0.023 -16.291975056723928 -1.400422063753581 -19.76530737914445 0 0 1
4056 41 1 -0.283 -17.581756177008458 -1.122313582503267 -19.176202984111534 0 0 1
4196 42 2 -0.023 -16.53107461408467 -7.4687046947996585 -19.123330550641885 0 0 1
4193 42 2 -0.023 -16.263525691958463 -5.992509060546823 -18.93772678265051 0 0 1
4110 41 3 0.082 -19.36848343338523 -1.942920642195567 -17.86254719569773 0 0 1
4109 41 2 -0.023 -19.625130404103878 -2.324278915743829 -16.83915367423984 0 0 1
4111 41 3 0.082 -20.574819465263033 -1.8727622266302077 -16.417168908678036 0 0 1
4195 42 3 0.083 -16.08020615804635 -5.819015623913774 -17.86270884011085 0 0 1
1150 12 3 0.082 -14.727914553903243 -9.274476905678705 -1.8125900194302638 0 0 0
4197 42 3 0.083 -15.594928466992695 -8.048311925004516 -18.979070917054635 0 0 1
4061 41 3 0.082 -20.278308640469085 -1.1617739215355058 -19.794710527178427 0 0 1
4060 41 2 -0.023 -19.53083932953792 -0.8978919420156863 -20.588454871544805 0 0 1
4121 41 3 0.082 -22.042186450525623 -2.6395236768566726 -19.877999656045134 0 0 1
2889 29 3 0.083 -0.27881583659516096 -4.519996240500074 -5.840023974494564 0 0 0
4051 41 3 0.08400000000000001 -15.746318079861924 -2.0151250247242807 -17.80831550172904 0 0 1
4192 42 1 -0.276 -15.116743559547938 -5.639951261935259 -19.75362179387215 0 0 1
3191 32 3 0.083 -10.400610547803998 -21.28264849613485 -6.571311600869702 0 1 0
6976 70 3 0.079 -16.44389357157698 -21.305455323090815 -22.187077563100924 1 0 1
4057 41 2 -0.023 -18.31632811323996 -0.21968163718309697 -19.989304220158694 0 0 1
372 4 2 -0.023 -22.977121408867614 -6.902641543653527 -12.056919395867087 0 0 0
10310 170 9 0.41 -9.711872424381728 -22.378472008993562 -13.800730346238815 0 1 0
577 6 1 -0.283 -22.781224934733313 -7.416587902198033 -17.70795647195351 0 0 0
560 6 2 -0.023 -19.25255615195743 -5.60751045431476 -22.839275160954955 0 0 0
1842 19 2 -0.023 -9.501067512350714 -4.089258586166725 -22.988671275536355 0 0 1
4118 41 3 0.082 -22.512522386301928 -4.48502309170215 -16.839778710534915 0 0 1
584 6 1 -0.283 -22.407117628796733 -10.309373759756795 -16.072072649012245 0 0 0
1189 12 3 0.082 -21.20968014024241 -6.671946572081588 -0.41114541570117424 0 0 0
4043 41 5 -0.019 -12.431190053373195 -0.9079383118219759 -17.19183407770665 0 0 1
5839 58 3 0.082 -22.879672287609356 -17.6590983470597 -17.448270007845675 1 0 1
10276 159 9 0.41 -10.418970654903685 -7.421857506295828 -18.591829285209556 1 0 1
4191 42 3 0.083 -13.827383428689892 -6.747127672846119 -18.640548552863716 0 0 1
4050 41 2 -0.021 -15.352552827191445 -2.1944098578187337 -18.844156680341893 0 0 1