LAMMPS data file via write_data, version 2 Aug 2023, timestep = 50000, units = real

10547 atoms
9 atom types
10298 bonds
7 bond types
18449 angles
8 angle types
21000 dihedrals
4 dihedral types

-23.085646359431838 23.085646359431838 xlo xhi
-23.085646359431838 23.085646359431838 ylo yhi
-23.085646359431838 23.085646359431838 zlo zhi

Masses

1 15.9994
2 12.011
3 1.008
4 1.008
5 12.011
6 15.9994
7 15.9994
8 15.9994
9 1.008

Pair Coeffs # lj/cut/coul/long

1 0.2526 2.8492
2 0.0663 3.5812
3 0.0283 2.3734
4 0 0
5 0.245 2.8114
6 0.1195 3.1
7 0.1195 3.1
8 0.155 3.165
9 0 0

Bond Coeffs # harmonic

1 1109.29 1.12
2 399.792 1.43
3 299.844 1.52
4 400.034 1.53
5 310.707 1.41
6 179.254 0.971
7 1059.16 1.012

Angle Coeffs # harmonic

1 47.694 109.5
2 55.1271 109.5
3 47.635 109.6
4 55.1139 111
5 54.9931 110.3
6 180.46 109
7 30.1731 110
8 75.9 113.24

Dihedral Coeffs # harmonic

1 0.3011 1 3
2 1.4149 1 3
3 0.239 -1 3
4 0 1 1

Atoms # full

8031 80 2 -0.023 -20.699534143342575 -18.73699223949983 -19.442722541250937 1 1 0
8030 80 1 -0.276 -21.4563406285303 -17.68990886745423 -18.966665684207424 1 1 0
8027 80 2 -0.023 -20.790413414128764 -16.488881201183755 -18.74994458385867 1 1 0
8028 80 3 0.083 -21.35244895020184 -15.813523547774874 -18.039971746374462 1 1 0
395 4 3 0.08400000000000001 -19.08703595948523 -16.289121199222496 -15.39207718011403 0 0 0
393 4 2 -0.021 -19.463385153763134 -17.32634488746409 -15.235773802091035 0 0 0
390 4 2 -0.023 -18.267216355558155 -18.33905117203064 -15.317771560834075 0 0 0
389 4 1 -0.283 -17.450458921384566 -18.12902119306803 -16.502466095199637 0 0 0
392 4 3 0.082 -18.658431870797283 -19.346471464784603 -15.07379684375115 0 0 0
8029 80 3 0.083 -19.734460675176685 -16.600976054945534 -18.386895707974894 1 1 0
391 4 3 0.082 -17.612837094801197 -18.053667125846232 -14.466812694940653 0 0 0
386 4 2 -0.023 -16.278510856767518 -18.87633492826745 -16.62530432976559 0 0 0
383 4 2 -0.023 -16.5246874091438 -20.360269619645777 -16.9605426671949 0 0 0
388 4 3 0.083 -15.743292389548325 -18.808626079713846 -15.654288231272332 0 0 0
387 4 3 0.083 -15.54554441387043 -18.45950539644072 -17.363520628275037 0 0 0
8034 80 2 -0.023 -21.67840583361101 -19.686136005810884 -20.089595327986334 1 1 0
8032 80 3 0.083 -20.109003361453375 -19.22254635746128 -18.607081866739385 1 1 0
394 4 3 0.08400000000000001 -20.193504176670217 -17.571018475862246 -16.045093552790792 0 0 0
8033 80 3 0.083 -19.86279885298751 -18.500034776280515 -20.160187735941083 1 1 0
384 4 3 0.082 -17.528006954657506 -20.661850362828865 -17.33790261048191 0 0 0
2450 25 3 0.082 -16.531176109760036 -19.420613080928597 -20.547602818563 0 1 0
382 4 1 -0.283 -16.343682467815658 -21.03765380928789 -15.748311443936357 0 0 0
10250 150 9 0.41 -20.16554585652596 -21.437478609823025 -15.77251313423666 1 1 0
2448 25 2 -0.023 -16.212524022398885 -18.430259512960966 -20.947981262294046 0 1 0
10248 150 8 -0.82 -20.431007676913516 -21.368234145269874 -16.744635381464548 1 1 0
385 4 3 0.082 -15.749469031606282 -20.572397817037498 -17.75295443422973 0 0 0
8025 80 3 0.083 -20.870734380082606 -16.485293544358075 -20.90320919478395 1 1 0
10249 150 9 0.41 -19.938051881322043 -22.052731248614634 -17.277763042126896 1 1 0
375 4 1 -0.283 -18.066588873184276 -21.385436736992684 -13.566893952352299 0 0 0
3074 31 1 -0.285 -22.70923823660006 -21.62970540692004 -12.077266444502966 0 1 0
3075 31 2 -0.023 -22.053677851555836 -21.51933295784879 -13.376783505478622 0 1 0
681 7 3 0.082 -16.745144454303514 -15.736771120109108 -17.83900137841881 0 0 0
2449 25 3 0.082 -16.547704809999566 -17.67701120841278 -20.190167018039137 0 1 0
8035 80 3 0.083 -22.669558936226963 -19.24217241449704 -20.318229486281965 1 1 0
8038 80 2 -0.023 -21.87468615249773 -21.129189176731863 -22.047526356846788 1 1 0
8037 80 1 -0.285 -21.0800812315771 -20.229115074904033 -21.28315672864034 1 1 0
8040 80 3 0.083 -22.47126176096724 -21.75587748686926 -21.329461152649234 1 1 0
3077 31 3 0.083 -22.45224616434602 -20.71082105446585 -14.04103285543501 0 1 0
8036 80 3 0.083 -22.03283229628224 -20.567551973473037 -19.502923356738876 1 1 0
396 4 1 -0.295 -20.087853237412904 -17.47310107621104 -14.00709195833822 0 0 0
3076 31 3 0.083 -20.945807302117377 -21.373090597411686 -13.330630263619744 0 1 0
379 4 2 -0.023 -16.75033214061796 -22.34763862677216 -15.39757875475657 0 0 0
707 7 4 0.211 -22.095176262604728 -7.051860769623627 -15.413181559986711 0 0 0
3462 35 3 0.082 -6.342196398148573 -20.55441297911511 -11.97462812150927 0 1 0
2621 26 3 0.079 -10.380452244742061 -0.44675155462418203 -14.307218703451174 0 0 0
2426 25 6 -0.328 -20.089497786434862 -22.504651645612768 -19.52948253614236 0 1 0
6385 64 3 0.082 -17.830956031372402 -2.8157449523412446 -12.063023233369206 1 0 0
2431 25 3 0.079 -17.55234174608191 -22.013428797403932 -18.924824578238045 0 1 0
2517 25 1 -0.295 -16.326854156750965 -14.912719906219557 -11.90297152785751 0 1 0
8041 80 2 -0.023 -20.794796268737155 -21.968866308637747 -22.731603790868935 1 1 0
376 4 2 -0.023 -17.009743018391028 -22.279811532783015 -13.897294816964111 0 0 0
6882 69 3 0.082 -21.752431535104197 -7.950703641691403 -19.625739982411154 1 0 1
3078 31 2 -0.023 -22.17531926809546 -22.7772529501266 -14.278046291269897 0 1 0
380 4 3 0.082 -17.69607314362797 -22.601383020078597 -15.9103906017477 0 0 0
2513 25 3 0.082 -16.703787021044555 -17.82418142881906 -12.397513675463106 0 1 0
399 4 3 0.079 -19.799881291686876 -15.405931765723242 -13.65503184507356 0 0 0
397 4 2 -0.063 -20.276159863832675 -16.31076270445068 -13.197090012649477 0 0 0
2515 25 3 0.08400000000000001 -16.71191210189066 -15.80120778488401 -13.741352002618688 0 1 0
2511 25 2 -0.023 -15.709974297689104 -17.253297733328825 -12.399932187913716 0 1 0
2514 25 2 -0.021 -15.91953872340193 -15.824783016242662 -12.943117736618373 0 1 0
8039 80 3 0.083 -22.52346656757817 -20.594988360343034 -22.794198721902436 1 1 0
552 6 3 0.083 -0.3509848540868852 -4.833164817615767 -20.68171534425839 0 0 0
10450 217 9 0.41 -21.813699498344914 -20.348149029348757 -16.95014729244286 1 1 0
176 2 3 0.082 -14.68248540478859 -9.505538147698099 -22.091293690051113 0 0 0
4232 42 3 0.08400000000000001 -20.733131858743523 -1.9515099578792636 -22.476911696870232 0 0 1
5108 51 1 -0.285 -22.540416826081806 -1.9841469588916247 -20.502575791794186 1 0 0
154 2 3 0.083 -16.181976894882332 -1.9067875795875437 -22.950015374285154 0 0 0
461 5 3 0.083 -3.8715664405045693 -14.30163447653022 -12.31532079630081 0 0 0
1408 14 3 0.079 -3.153875529077446 -18.57176489428612 -22.54796721945349 0 0 1
150 2 3 0.083 -13.891140198796544 -1.8363330116041894 -22.494619233425798 0 0 0
2409 24 1 -0.283 -3.005805839544454 -22.855729703236225 -11.786641190401987 0 1 0
706 7 7 -0.328 -22.993154075034976 -6.697717625654072 -15.138662926731524 0 0 0
2505 25 3 0.082 -13.96647665203152 -19.922719496466218 -14.587929078513282 0 1 0
1468 15 3 0.083 -1.657760453940778 -15.538445973506185 -22.219489193404385 0 0 1
2666 27 3 0.082 -10.230109325998548 -16.04166820342952 -12.417689737044896 0 1 0
676 7 3 0.082 -14.634863609310969 -16.81081533051597 -18.862375858723205 0 0 0
2447 25 1 -0.283 -14.821476317510912 -18.13652148965322 -21.252716353111307 0 1 0
2442 25 3 0.083 -14.096239705966786 -20.33122603551682 -22.124202513276053 0 1 0
2636 27 2 -0.021 -9.583389365157169 -22.401571077113815 -12.915987153821142 0 1 0
2446 25 3 0.082 -13.697033194939282 -18.813602651431196 -19.49600856621673 0 1 0
675 7 2 -0.023 -14.55109873049177 -15.755199934763448 -19.269384712778958 0 0 0
4838 48 3 0.08400000000000001 -12.012933040982213 -22.427292004018955 -17.046266428353327 0 1 1
2444 25 2 -0.023 -13.760935577102783 -18.908923526003946 -20.608272151529928 0 1 0
2445 25 3 0.082 -12.85834050719634 -18.468052548785785 -21.10175757331966 0 1 0
4837 48 2 -0.021 -11.375146985417523 -21.84614026640375 -17.759555270706933 0 1 1
2622 26 5 -0.019 -10.293442832871387 -0.37976323033668535 -16.382823649410177 0 0 0
1394 14 3 0.082 -9.11280707065607 -16.60219314155947 -22.88694577087857 0 0 1
2510 25 1 -0.283 -14.818388909858648 -18.031863795260506 -13.23801582832643 0 1 0
2443 25 3 0.083 -12.715876553889998 -20.666425099918627 -21.00163345414055 0 1 0
2508 25 3 0.083 -14.593803221415884 -19.349782247326395 -11.620358605667677 0 1 0
2507 25 2 -0.023 -14.837099154224626 -19.389806178607255 -12.71236223110597 0 1 0
2506 25 3 0.082 -12.843228998671652 -19.680485744087854 -13.308103777583874 0 1 0
2504 25 2 -0.023 -13.839671360262956 -20.123291292311063 -13.504548035996661 0 1 0
2502 25 3 0.082 -12.0463873840526 -21.820251753202918 -14.258721609690209 0 1 0
2503 25 1 -0.283 -13.961326041163229 -21.564083126837417 -13.388521980192245 0 1 0
4848 48 4 0.211 -11.073104097686182 -16.43898117778136 -17.008123999464374 0 1 1
4847 48 7 -0.328 -11.867249924893054 -17.109699559748847 -16.903058198554497 0 1 1
4846 48 3 0.093 -11.59908258887865 -18.645993960722766 -15.569508120104274 0 1 1
4844 48 5 -0.019 -11.406591513704281 -18.390119763917003 -16.636154215574273 0 1 1
4845 48 3 0.093 -10.286032917286068 -18.407647358876666 -16.605109710697807 0 1 1
4841 48 2 -0.063 -11.85802646677006 -19.449062710960973 -17.60342080272847 0 1 1
4842 48 3 0.079 -12.935699056762402 -19.70610161014025 -17.456628503062436 0 1 1
4843 48 3 0.079 -11.696296529249862 -19.164103953425325 -18.663583121114225 0 1 1
4840 48 1 -0.295 -11.089002813509417 -20.555553575086954 -17.19832262476934 0 1 1
2660 27 2 -0.023 -9.025951334445725 -17.57068337553682 -13.894736418178304 0 1 0
2661 27 3 0.082 -9.406117713570117 -17.169902182140007 -14.876231913299717 0 1 0
2658 27 3 0.082 -7.2671926976623045 -18.561638678170986 -13.540433483710679 0 1 0
2657 27 2 -0.023 -8.174348838318572 -18.82831157615757 -14.132321373923888 0 1 0
2659 27 3 0.082 -8.610261981352059 -19.75028299707457 -13.701622984457913 0 1 0
2662 27 3 0.082 -8.339006577018823 -16.81124439817144 -13.40285545565892 0 1 0
2656 27 1 -0.283 -7.828081308783654 -18.957832231020145 -15.494546316724325 0 1 0
2654 27 3 0.082 -9.112035759475226 -20.578007885028985 -15.8140206187512 0 1 0
2441 25 2 -0.023 -13.785573956184715 -20.318346372663214 -21.053005991572192 0 1 0
662 7 3 0.083 -9.988944526059466 -16.494830087843404 -18.51346317316578 0 0 0
661 7 2 -0.023 -9.040894135740821 -16.356920581277805 -19.103205629439014 0 0 0
663 7 3 0.083 -8.386387360859548 -17.24709034927112 -19.216594748016853 0 0 0
658 7 2 -0.023 -8.149185042398244 -15.195150475062183 -18.63395329895578 0 0 0
669 7 3 0.082 -11.549824667484653 -16.775429894217385 -21.059984854788304 0 0 0
664 7 1 -0.285 -9.421219060867122 -16.01787576212416 -20.474475157304322 0 0 0
544 6 3 0.082 -0.6149284495916341 -6.05774917030465 -16.54361015291464 0 0 0
670 7 3 0.082 -11.558378719947804 -15.42217479167656 -22.409584947454952 0 0 0
668 7 2 -0.023 -11.604993617170692 -15.690596824628095 -21.30895774733786 0 0 0
530 6 3 0.082 -0.28788583175364124 -10.416235461931457 -14.05228380680789 0 0 0
2440 25 1 -0.283 -14.468657643819 -21.14073879652796 -20.05790377620469 0 1 0
4839 48 3 0.08400000000000001 -11.918295942897583 -21.82276484601415 -18.744919253121196 0 1 1
4834 48 2 -0.023 -10.11619538754504 -22.609064337489908 -17.83731899975276 0 1 1
674 7 3 0.082 -12.443479974955768 -16.158566631005886 -19.02986996549497 0 0 0
2509 25 3 0.083 -15.871756158917506 -19.78679934897447 -12.863476877284855 0 1 0
2430 25 2 -0.063 -17.78049426410972 -22.820696718156796 -19.6697213420417 0 1 0
8021 80 3 0.083 -20.802400893696927 -14.205860234358187 -22.00559691423303 1 1 0
146 2 2 -0.023 -14.032962778226374 -3.983131276920929 -22.099907870975702 0 0 0
2663 27 1 -0.284 -10.072298247748927 -18.014610998090017 -12.997199828449213 0 1 0
678 7 1 -0.283 -15.158768956238472 -14.779529942498215 -18.420624928772465 0 0 0
672 7 2 -0.023 -13.107788394026365 -15.356999091695863 -19.44474120971585 0 0 0
671 7 1 -0.284 -12.858448543058763 -15.137900624354812 -20.87409094549443 0 0 0
2546 26 3 0.082 -8.603651310072232 -4.795783021347965 -22.745017848275964 0 0 0
665 7 2 -0.023 -10.430913883620576 -15.00013093550776 -20.62121784321236 0 0 0
2638 27 3 0.08400000000000001 -9.893309692615922 -21.751027403367768 -13.758321534437576 0 1 0
53 1 3 0.083 -0.9321751237510512 -19.523739292241377 -15.22176890210756 0 0 0
537 6 3 0.082 -2.4389807430515837 -9.0338839360213 -16.4012049266099 0 0 0
1390 14 3 0.082 -9.518509794068212 -19.012606023146876 -22.777827011821753 0 0 1
2557 26 3 0.082 -3.883466502413306 -3.7798183793204316 -17.5965330024912 0 0 0
659 7 3 0.083 -7.050159500451809 -15.33447970866505 -18.75534162328666 0 0 0
4260 43 3 0.083 -1.3885160919725053 -0.06926444289722156 -16.379777431085078 0 0 1
373 4 3 0.082 -19.148463092844054 -22.170211165522854 -11.83959448039646 0 0 0
657 7 1 -0.276 -8.368358884744355 -14.760667062415592 -17.26685363815243 0 0 0
660 7 3 0.083 -8.40087054298092 -14.366928653325031 -19.328879304432217 0 0 0
699 7 1 -0.295 -22.551185951332148 -9.323109525610054 -16.008818148971137 0 0 0
2665 27 3 0.082 -11.827953652513466 -17.00165074980309 -12.905652608528264 0 1 0
2452 25 3 0.082 -16.452439892418383 -17.189659518739212 -22.573983107086264 0 1 0
4835 48 3 0.082 -9.18437352358963 -22.029496999295944 -18.02196623003097 0 1 1
2500 25 2 -0.023 -13.087023926608646 -22.20855028138322 -14.389302529751632 0 1 0
2516 25 3 0.08400000000000001 -14.95658078900623 -15.434708176650606 -13.397609971226466 0 1 0
547 6 3 0.083 -2.4748121491605133 -5.447825895145996 -18.7544932605392 0 0 0
2664 27 2 -0.023 -10.838118941545819 -17.001814612557883 -12.371345135862823 0 1 0
2563 26 2 -0.023 -6.5500612095128545 -1.9650971854693644 -17.57102896988914 0 0 0
168 2 3 0.082 -16.91946418255874 -5.599457807405653 -22.838261829874494 0 0 0
524 6 3 0.083 -1.081153105285562 -14.497586406411473 -15.49828675837708 0 0 0
2653 27 2 -0.023 -8.048546852153816 -20.26133837137708 -16.01861315685215 0 1 0
1447 15 3 0.082 -4.130221313199087 -20.916657385025143 -20.356035152490357 0 0 1
1449 15 3 0.082 -5.114790020086183 -19.131456220219743 -18.738365999061756 0 0 1
2655 27 3 0.082 -7.810076627413666 -20.154873475626207 -17.10126847811927 0 1 0
1442 15 3 0.082 -5.7639419287142815 -21.80427800376655 -22.754822218272643 0 0 1
1444 15 1 -0.283 -6.162515943377329 -20.83513440852091 -20.82994340392575 0 0 1
1445 15 2 -0.023 -4.856942945147434 -20.13654440733879 -20.72141763388558 0 0 1
2649 27 1 -0.283 -7.110572340405259 -22.653005753479697 -16.03159217013865 0 1 0
2624 26 3 0.093 -10.047446817267346 -1.1124208080206692 -17.190671846961717 0 0 0
2650 27 2 -0.023 -6.950989896786481 -21.27904596975518 -15.480039070710365 0 1 0
1446 15 3 0.082 -4.533504363630669 -19.7704407490568 -21.73065274897267 0 0 1
1450 15 3 0.082 -5.824330360401863 -18.227583999077066 -20.150997318184896 0 0 1
1448 15 2 -0.023 -4.979523101049843 -18.877752635087308 -19.818353294470622 0 0 1
7680 77 3 0.093 -22.100170779360404 -14.671315657715253 -16.382361991506553 1 1 0
2421 24 3 0.093 -3.715941168287994 -21.030215923216463 -17.595096012795352 0 1 0
2652 27 3 0.082 -6.85571535567291 -21.417526104203795 -14.353325099260887 0 1 0
2651 27 3 0.082 -5.9680137577891905 -20.848290564390755 -15.794831306747998 0 1 0
1451 15 1 -0.284 -3.835679465370635 -17.998415206189044 -19.86029663584501 0 0 1
2419 24 3 0.079 -1.9923609719968738 -20.982468978851177 -15.998363553425925 0 1 0
2410 24 2 -0.023 -3.9270782861236064 -22.209698005665498 -12.639732115277116 0 1 0
2413 24 2 -0.021 -3.2134911243140145 -21.250815644004923 -13.614410809304053 0 1 0
2416 24 1 -0.295 -3.8089574096871033 -21.23326389267536 -14.91256164653503 0 1 0
2417 24 2 -0.063 -2.7638955649276227 -21.783210180516832 -15.837273144102618 0 1 0
993 10 3 0.083 -0.3201809902524957 -2.4975549089760314 -11.883731241274312 0 0 0
2420 24 5 -0.019 -3.380893449424235 -22.000026231333383 -17.172315565812884 0 1 0
2423 24 7 -0.328 -2.447291815062048 -22.548703371168862 -18.074730248817325 0 1 0
2415 24 3 0.08400000000000001 -3.1037738645752206 -20.225976525940737 -13.17538157996272 0 1 0
1452 15 2 -0.023 -3.732152416003487 -16.94721583672491 -18.937406901859944 0 0 1
1454 15 3 0.082 -4.546952098585468 -16.302353153089992 -19.334886694170727 0 0 1
1455 15 2 -0.023 -2.3308042712373798 -16.343601908829147 -19.270739595081377 0 0 1
1456 15 3 0.083 -2.05989785926203 -16.636516268197667 -20.319900194086667 0 0 1
1453 15 3 0.082 -3.7808837647044626 -17.43628191670788 -17.939847961926954 0 0 1
1457 15 3 0.083 -1.5184797695471808 -16.61551214467915 -18.552511779174527 0 0 1
297 3 3 0.079 -5.446825958362137 -16.856989986050387 -15.804835716079136 0 0 0
1391 14 3 0.082 -11.214261251542462 -18.112108255404426 -22.73675357261811 0 0 1
298 3 3 0.079 -5.860682073805016 -17.175190565308988 -14.1109220375736 0 0 0
296 3 2 -0.063 -5.02537825593442 -16.810746407649177 -14.76921858617321 0 0 0
303 3 4 0.211 -2.793240615939755 -16.013005767614956 -15.412507581450951 0 0 0
302 3 7 -0.328 -2.5940499906988777 -17.051745637991992 -15.31274249829611 0 0 0
299 3 5 -0.019 -3.6922045822388334 -17.620627539389208 -14.701132834206675 0 0 0
2411 24 3 0.082 -4.729512598162884 -21.545860057195906 -12.207432973600529 0 1 0
301 3 3 0.093 -3.38642151258162 -17.667472464781607 -13.623933085078283 0 0 0
300 3 3 0.093 -3.689504670665144 -18.652399227940172 -15.129301859209889 0 0 0
2422 24 3 0.093 -4.197143561723294 -22.744599894581636 -16.93682214253535 0 1 0
54 1 3 0.083 -0.3157274056924102 -20.646568769863606 -13.922413411177674 0 0 0
2501 25 3 0.082 -13.352356212492236 -21.988142371006308 -15.464736768366963 0 1 0
2412 24 3 0.082 -4.541039752408274 -23.00561802604822 -13.141776087233945 0 1 0
295 3 1 -0.295 -4.624146851600976 -15.450341575564444 -14.468004938717112 0 0 0
465 5 3 0.083 -2.3246394638227095 -15.948072036025232 -11.941453601374443 0 0 0
2522 25 3 0.093 -18.139539280224717 -12.846889851654446 -12.754388382852794 0 1 0
454 5 3 0.083 -4.855520798833439 -9.849395902264824 -12.118626006838252 0 0 0
6068 61 3 0.079 -22.82196929886346 -8.267837465628505 -13.05191825271238 1 0 0
142 2 2 -0.023 -12.519975797334729 -5.589889657650058 -23.041521613529664 0 0 0
119 2 3 0.083 -14.442165722534101 -12.7426332719118 -22.263383405040603 0 0 0
1441 15 2 -0.023 -6.559145079158814 -21.29965256032083 -22.154472537167266 0 0 1
4975 50 3 0.082 -4.827238630973987 -0.40176760907252884 -20.3318957704329 0 0 1
1404 14 3 0.08400000000000001 -4.761279008266612 -17.116553834477894 -22.61214948424238 0 0 1
6386 64 1 -0.283 -19.949861152437393 -2.990244868590551 -11.940757342897934 1 0 0
68 1 3 0.082 -0.13380935470828703 -20.907991036047868 -21.02508621634858 0 0 0
221 3 3 0.083 -4.60682239924153 -3.974336251142123 -14.6243516435076 0 0 0
536 6 2 -0.023 -2.0490580197828088 -8.412548548674811 -15.558992885476474 0 0 0
219 3 2 -0.023 -4.960518438463282 -3.791290546818651 -13.582509890678775 0 0 0
163 2 2 -0.023 -19.283074105541658 -5.1856996786606615 -22.632843880754223 0 0 0
531 6 3 0.082 -1.2764904908524208 -11.327624416074755 -12.828949206553803 0 0 0
8024 80 2 -0.023 -20.955912966670134 -15.766453607889574 -20.045287512977666 1 1 0
7678 77 6 -0.328 -21.48917235736036 -13.89489714258154 -14.59186288351104 1 1 0
522 6 2 -0.023 -0.05723470427106747 -14.556521391831838 -14.998968468155901 0 0 0
8020 80 2 -0.023 -19.7987856140142 -14.131282959471898 -21.48791169604895 1 1 0
806 8 3 0.093 -18.004918230312168 -6.857970523341905 -13.219128897191869 0 0 0
398 4 3 0.079 -21.353386441783083 -15.994096960618343 -13.211464775439548 0 0 0
2547 26 3 0.082 -8.314883998914011 -2.947096873678497 -22.368188400537242 0 0 0
222 3 2 -0.023 -6.253252849779134 -4.571720856503486 -13.424660159642123 0 0 0
7371 73 3 0.093 -20.081635611808636 -9.017080987781661 -22.525086894745677 1 0 1
804 8 5 -0.019 -17.361003869713805 -7.767079895588855 -13.241468817044957 0 0 0
171 2 3 0.082 -17.09438757838352 -8.526092083971257 -21.59053969842596 0 0 0
2562 26 1 -0.284 -5.908694635146929 -2.9626690649633254 -16.751779202151454 0 0 0
8023 80 1 -0.285 -19.954801679238926 -14.762075336584772 -20.220690058391686 1 1 0
680 7 3 0.082 -15.37557482710676 -15.989481515410155 -16.70371356723482 0 0 0
7165 71 3 0.079 -22.209636809099273 -12.914212121807424 -20.08847799933268 1 0 1
805 8 3 0.093 -17.892131429640997 -8.411155962585823 -13.995579433227661 0 0 0
7171 71 4 0.211 -22.2275587376817 -9.536294162425971 -21.2696732206853 1 0 1
8018 80 3 0.082 -17.744185487236933 -14.721165871072913 -21.785410105224187 1 1 0
679 7 2 -0.023 -15.902510775866991 -15.214639228751086 -17.314382170509603 0 0 0
8026 80 3 0.083 -21.97670675017296 -15.299512254835214 -20.105272478690633 1 1 0
691 7 3 0.083 -18.32815484354211 -12.007450856074312 -15.494949757040402 0 0 0
682 7 2 -0.023 -16.19954108898955 -13.927655228566685 -16.61353345373599 0 0 0
685 7 1 -0.283 -17.566551874690493 -14.007092210739819 -16.17317027937562 0 0 0
684 7 3 0.082 -15.671696289711235 -14.13708502693245 -15.65632515019626 0 0 0
683 7 3 0.082 -15.926389075084728 -13.032076494599284 -17.249353974278733 0 0 0
2521 25 5 -0.019 -17.088855089624992 -12.868097164518806 -13.098963796815479 0 1 0
2453 25 3 0.082 -17.965571572221855 -17.95668897808492 -22.124373319394874 0 1 0
694 7 3 0.082 -20.35354354394405 -9.995827323780679 -16.23859323014731 0 0 0
688 7 3 0.082 -18.44429120951811 -13.547785030303425 -18.130582554622453 0 0 0
690 7 3 0.083 -18.45584393606356 -11.49034415804887 -17.16705286004437 0 0 0
692 7 1 -0.283 -20.37841104726044 -11.920499771287574 -16.3467992522314 0 0 0
693 7 2 -0.023 -20.708837299675732 -10.775717247640427 -15.515113832125753 0 0 0
686 7 2 -0.023 -18.63613365009012 -13.50919377128817 -17.018116049233697 0 0 0
117 2 1 -0.283 -15.88800320322413 -11.722461990962223 -21.30560543377451 0 0 0
115 2 3 0.082 -16.99023192786977 -13.030831417440092 -20.330702191875584 0 0 0
116 2 3 0.082 -16.019016062796712 -11.923350886319481 -19.182446297859823 0 0 0
114 2 2 -0.023 -16.64569082306518 -11.988968206023188 -20.12123262647467 0 0 0
689 7 2 -0.023 -18.949343315326725 -12.14764535750853 -16.413072388631342 0 0 0
687 7 3 0.082 -19.595348930936495 -14.051080165621231 -16.849284742188434 0 0 0
113 2 3 0.08400000000000001 -18.841072095441667 -11.526734869968372 -19.750188444897717 0 0 0
111 2 2 -0.021 -17.874277030249466 -11.09483074372702 -20.112117747831373 0 0 0
112 2 3 0.08400000000000001 -17.925756905869367 -10.628681342279416 -21.125168528228063 0 0 0
110 2 1 -0.295 -17.482563609672212 -10.012784848317972 -19.266433721004244 0 0 0
108 2 3 0.079 -18.866833622831788 -8.558234881121363 -19.849514655233893 0 0 0
109 2 3 0.079 -19.4439374449937 -9.565038200288567 -18.516398262986293 0 0 0
107 2 2 -0.063 -18.507835237668676 -9.06319429120305 -18.910662551160314 0 0 0
104 2 5 -0.019 -18.02738149606662 -7.93066320024767 -17.96285421743624 0 0 0
105 2 3 0.093 -17.052943837106096 -8.193865198074667 -17.466201753484683 0 0 0
698 7 3 0.08400000000000001 -22.96728252069927 -11.29422006403193 -15.294125391832383 0 0 0
696 7 2 -0.021 -22.188065966948727 -10.47961908101497 -15.23928161529126 0 0 0
106 2 3 0.093 -17.692090923122453 -7.133631200863022 -18.697636743424557 0 0 0
639 7 3 0.082 -15.887204210222023 -10.17773281631522 -17.115173670860045 0 0 0
2559 26 2 -0.023 -5.8827748334005925 -4.252130432434445 -17.275205508287613 0 0 0
4977 50 3 0.082 -7.094818608899233 -0.9687030468890718 -21.025089880840646 0 0 1
695 7 3 0.082 -20.092514415205827 -10.753203806447708 -14.574839908151638 0 0 0
2518 25 2 -0.063 -16.20610569676439 -13.499647007809529 -11.978708444535707 0 1 0
638 7 3 0.082 -14.594964955602443 -11.389417974345564 -17.554438691436598 0 0 0
637 7 2 -0.023 -14.786587004130128 -10.432713197377423 -17.00005242371165 0 0 0
641 7 3 0.082 -15.398218495640933 -10.413377484163304 -14.906017026966953 0 0 0
7164 71 2 -0.063 -22.60106157019976 -12.035021017830854 -19.52411148343562 1 0 1
7679 77 5 -0.019 -22.5762300860404 -14.29396659518547 -15.460938979490923 1 1 0
7170 71 7 -0.328 -22.256348613921194 -10.569087374138844 -21.266937603339514 1 0 1
7677 77 4 0.211 -20.8900753983181 -13.271154939271112 -15.195052658173822 1 1 0
173 2 1 -0.283 -15.369063314979066 -7.654892538310593 -22.551360518935216 0 0 0
2548 26 1 -0.283 -6.60183509398103 -4.155729300302088 -22.198451879397922 0 0 0
120 2 3 0.083 -14.861324863523281 -13.294065854673812 -20.541221168360554 0 0 0
801 8 2 -0.063 -15.981499658937818 -7.3470651076102715 -13.749880241820575 0 0 0
6887 69 3 0.083 -21.511350098592146 -7.421718870194843 -22.747129517302778 1 0 1
2437 25 2 -0.023 -14.875923613795756 -22.343028752346854 -20.72652539625871 0 1 0
3456 35 3 0.082 -4.596251727928717 -16.459188315542058 -11.786138234404484 0 1 0
2524 25 7 -0.328 -16.855869695829558 -11.462966648748857 -13.185866333109212 0 1 0
548 6 3 0.083 -0.7537242156067556 -6.095592553031974 -18.9392668750721 0 0 0
2525 25 4 0.211 -17.58555582773672 -11.05868739239692 -13.4970490415754 0 1 0
8022 80 3 0.083 -19.504102012226824 -13.047128694844716 -21.417249996731 1 1 0
807 8 7 -0.328 -17.257650376353176 -8.456814449332287 -12.046612717357153 0 0 0
369 4 2 -0.023 -18.98446408625989 -19.96755849605985 -12.008352261985639 0 0 0
677 7 3 0.082 -15.108747404880704 -15.530321617249157 -20.215841606561394 0 0 0
803 8 3 0.079 -15.340072057439283 -8.255150040581627 -13.832807984227514 0 0 0
634 7 3 0.082 -15.429324934255778 -8.506554550936329 -18.595438894566996 0 0 0
633 7 2 -0.023 -14.60575590851423 -8.223093431359219 -17.88837602326391 0 0 0
553 6 2 -0.023 -0.11858381257457751 -2.692436345768911 -20.65064557295125 0 0 0
673 7 3 0.082 -12.973490546930972 -14.39096422933724 -18.8880222478788 0 0 0
7166 71 3 0.079 -21.82742882692624 -11.56134296613165 -18.873866887496305 1 0 1
2436 25 3 0.08400000000000001 -15.389437188062535 -22.782863997464588 -18.599126694732313 0 1 0
636 7 1 -0.283 -13.87671433760704 -9.384635803128615 -17.42810989346318 0 0 0
640 7 2 -0.023 -14.505704005869143 -10.712453555239994 -15.541690724220285 0 0 0
643 7 1 -0.284 -14.03852551247883 -12.023358295859795 -15.429744119384187 0 0 0
655 7 3 0.083 -9.301543258091126 -12.995878096967374 -16.98119190845581 0 0 0
652 7 3 0.083 -10.579425441227228 -15.33931507125575 -15.449872920517258 0 0 0
216 3 3 0.082 -3.1931724152625947 -2.1568040510738093 -13.892927789442615 0 0 0
118 2 2 -0.023 -14.63776470659021 -12.419146430679042 -21.209229308107926 0 0 0
649 7 3 0.083 -12.709800717604633 -14.225138404741603 -14.547611191904767 0 0 0
642 7 3 0.082 -13.641175928044403 -10.066173326195027 -15.249618817131196 0 0 0
123 2 3 0.082 -13.003251278741866 -10.935285926472195 -21.272368592557125 0 0 0
645 7 3 0.082 -12.546296728913331 -11.979323496549343 -13.791666903911464 0 0 0
654 7 2 -0.023 -9.58576429764545 -14.093085062657588 -16.902769676318684 0 0 0
648 7 3 0.083 -12.300947810000533 -13.77956333467847 -16.253076182669112 0 0 0
651 7 2 -0.023 -9.933974295138395 -14.422567385574675 -15.502176406566088 0 0 0
667 7 3 0.083 -10.674623237464607 -14.535056088752226 -19.635448069889158 0 0 0
656 7 3 0.083 -10.393880385539623 -14.21548488944388 -17.6720326659014 0 0 0
644 7 2 -0.023 -12.694869652545304 -12.100806859537705 -14.888507109801727 0 0 0
666 7 3 0.083 -10.042624943082034 -14.195017363632886 -21.3020857852568 0 0 0
122 2 3 0.082 -14.032965391147652 -10.941888297994618 -19.802112067743636 0 0 0
121 2 2 -0.023 -13.522694812531109 -11.603609954351327 -20.539945228373263 0 0 0
650 7 1 -0.285 -10.697449550277945 -13.35161567506827 -14.969346576479602 0 0 0
124 2 1 -0.283 -12.44378960690147 -12.342426970867953 -19.888931181155208 0 0 0
129 2 3 0.082 -10.40985774304646 -11.866853450045395 -21.392019850224905 0 0 0
126 2 3 0.082 -11.071840903487418 -12.008416280248234 -18.587749727526035 0 0 0
125 2 2 -0.023 -11.4274987760819 -11.468882389386318 -19.513715507212087 0 0 0
127 2 3 0.082 -11.82359164115569 -10.459723544784408 -19.226551803864673 0 0 0
128 2 2 -0.023 -10.23412842423972 -11.433033037243074 -20.37870523950193 0 0 0
130 2 3 0.082 -9.428684187294667 -12.093235702713738 -19.98088922921174 0 0 0
278 3 2 -0.023 -8.50267895698097 -9.702022289983738 -16.765195013137976 0 0 0
279 3 3 0.082 -7.833899084736299 -8.934785317288156 -16.302134002271654 0 0 0
194 2 1 -0.295 -7.907127758945807 -13.386836343937452 -22.602147196382028 0 0 0
646 7 3 0.082 -11.975083813338097 -11.393878827824556 -15.374498925886535 0 0 0
131 2 1 -0.283 -9.739567818054203 -10.10936892213694 -20.449332672706714 0 0 0
275 3 2 -0.023 -9.863405132652211 -9.59528134544439 -16.024824300466094 0 0 0
277 3 3 0.082 -10.092451667104818 -10.415272332283994 -15.288826599534518 0 0 0
647 7 2 -0.023 -12.095100763097285 -13.505497935751583 -15.17949315137713 0 0 0
280 3 3 0.082 -8.544583853536691 -9.49617264182172 -17.869880872603446 0 0 0
446 5 3 0.083 -9.371193660138399 -10.443116622182393 -13.14882763354702 0 0 0
133 2 3 0.082 -11.410809765937888 -9.779900580489954 -21.682312441580546 0 0 0
132 2 2 -0.023 -10.365565254872248 -9.354700110784602 -21.54996604187307 0 0 0
653 7 3 0.083 -8.986564032392458 -14.588036233368689 -14.924944698596757 0 0 0
134 2 3 0.082 -9.741796658061702 -9.592758553393603 -22.440969941134703 0 0 0
276 3 3 0.082 -10.617006738324001 -9.738802310940974 -16.846037065072053 0 0 0
273 3 3 0.082 -11.762687872978097 -9.079766162813856 -14.250982274331008 0 0 0
447 5 3 0.083 -9.129875581154257 -12.094591650947557 -12.485602985318462 0 0 0
445 5 2 -0.023 -9.065708830721993 -11.018144441081352 -12.227810673874941 0 0 0
632 7 3 0.082 -13.496927387759058 -7.906632600136218 -19.707521565320885 0 0 0
281 3 1 -0.283 -7.899030991561606 -10.985624830441253 -16.634410874093966 0 0 0
546 6 2 -0.023 -1.4089494877179192 -5.34710175720878 -18.460020862236103 0 0 0
8017 80 2 -0.023 -18.72734426135111 -14.85355606473792 -22.27534017144003 1 1 0
271 3 2 -0.023 -11.239599532983386 -8.121304001034488 -14.510324289387325 0 0 0
272 3 3 0.082 -12.080735991263484 -7.575578616832068 -15.009994799347112 0 0 0
195 2 2 -0.063 -6.799941569977893 -13.194088022733604 -21.737931351205702 0 0 0
287 3 3 0.083 -6.543235365874974 -13.01592123296118 -17.129718544927627 0 0 0