LAMMPS data file via write_data, version 2 Aug 2023, timestep = 50000, units = real

10547 atoms
9 atom types
10298 bonds
7 bond types
18449 angles
8 angle types
21000 dihedrals
4 dihedral types

-23.05269062006233 23.05269062006233 xlo xhi
-23.05269062006233 23.05269062006233 ylo yhi
-23.05269062006233 23.05269062006233 zlo zhi

Masses

1 15.9994
2 12.011
3 1.008
4 1.008
5 12.011
6 15.9994
7 15.9994
8 15.9994
9 1.008

Pair Coeffs # lj/cut/coul/long

1 0.2526 2.8492
2 0.0663 3.5812
3 0.0283 2.3734
4 0 0
5 0.245 2.8114
6 0.1195 3.1
7 0.1195 3.1
8 0.155 3.165
9 0 0

Bond Coeffs # harmonic

1 1109.29 1.12
2 399.792 1.43
3 299.844 1.52
4 400.034 1.53
5 310.707 1.41
6 179.254 0.971
7 1059.16 1.012

Angle Coeffs # harmonic

1 47.694 109.5
2 55.1271 109.5
3 47.635 109.6
4 55.1139 111
5 54.9931 110.3
6 180.46 109
7 30.1731 110
8 75.9 113.24

Dihedral Coeffs # harmonic

1 0.3011 1 3
2 1.4149 1 3
3 0.239 -1 3
4 0 1 1

Atoms # full

390 4 2 -0.023 -19.570517484904585 -22.801431189295506 -18.588027961955113 0 0 0
391 4 3 0.082 -18.454761160420006 -22.67654491027002 -18.587714578048786 0 0 0
2832 29 3 0.093 -0.8522503548912184 -2.813250534687544 -3.4190303106851374 0 0 0
394 4 3 0.08400000000000001 -20.97728913185955 -21.53832020445583 -19.787781578902678 0 0 0
393 4 2 -0.021 -20.2604987852258 -21.46238764346507 -18.949630638069614 0 0 0
395 4 3 0.08400000000000001 -19.43997601412146 -20.737295871190806 -19.223885887648976 0 0 0
396 4 1 -0.295 -20.933625797123412 -21.049476875343522 -17.769738029408824 0 0 0
398 4 3 0.079 -21.747531449345665 -19.54457938562582 -16.508970407242586 0 0 0
8036 80 3 0.083 -20.736973914917442 -17.46678127051884 -19.47866046086474 0 0 0
8034 80 2 -0.023 -20.671141983959494 -16.65965294837048 -20.229839994777283 0 0 0
397 4 2 -0.063 -20.913885763264744 -19.708721230882208 -17.25959388392725 0 0 0
399 4 3 0.079 -21.23534835388255 -19.017579266426335 -18.106025778002703 0 0 0
400 4 5 -0.019 -19.54297486165605 -19.477782872665237 -16.651309181628896 0 0 0
401 4 3 0.093 -18.726275840513214 -19.823306015910816 -17.332179994603052 0 0 0
8032 80 3 0.083 -19.225660213427407 -15.569754560405304 -19.066384947034543 0 0 0
676 7 3 0.082 -15.107061567867852 -17.036126239449793 -15.983112932443436 0 0 0
8040 80 3 0.083 -20.257925832880588 -19.157618504281594 -21.056017318416462 0 0 0
2434 25 2 -0.021 -17.093094776225914 -21.059337848113113 -21.32994867951752 0 1 0
2435 25 3 0.08400000000000001 -17.5823456799153 -21.725534048037506 -20.56834444521728 0 1 0
2437 25 2 -0.023 -16.839818111242316 -19.571204818770674 -20.86555997958003 0 0 0
2439 25 3 0.082 -17.547463775401933 -19.216844545737537 -20.062295566909267 0 0 0
678 7 1 -0.283 -15.611532631834393 -15.010484897329924 -15.440642130286761 0 0 0
675 7 2 -0.023 -15.721722002053504 -16.1563699076763 -16.334910344450343 0 0 0
679 7 2 -0.023 -15.663421880403671 -15.448951778791354 -14.12283043787094 0 0 0
8031 80 2 -0.023 -19.326375451154703 -15.905207316300825 -20.138061959781453 0 0 0
4223 42 3 0.082 -17.469061772250903 -1.2243895042887587 -22.31115783253344 0 0 1
2433 25 1 -0.295 -15.841180525865013 -21.713002631525594 -21.789279338614378 0 1 0
2498 25 3 0.082 -16.39798499303767 -20.211465650508554 -17.354991664703157 0 1 0
672 7 2 -0.023 -15.24637333663911 -15.66543122069432 -17.70637471490081 0 0 0
2438 25 3 0.082 -15.833026379246391 -19.542091517480394 -20.4079790267436 0 0 0
671 7 1 -0.284 -15.263881217745766 -16.812137267827616 -18.533573106971005 0 0 0
8037 80 1 -0.285 -20.674140220357625 -17.141820017521244 -21.56603830783616 0 0 0
7687 77 3 0.08400000000000001 -21.350075591729247 -16.059992786878638 -17.358235571309123 1 0 0
8035 80 3 0.083 -21.524804241538067 -15.971080291844245 -20.017006349151664 0 0 0
8029 80 3 0.083 -17.178548523188166 -14.544422268259046 -21.35279281795771 0 0 0
677 7 3 0.082 -16.826691599659352 -16.302659761218905 -16.40398765468125 0 0 0
8033 80 3 0.083 -18.416352097740067 -16.503144641475547 -20.338403543987962 0 0 0
6415 64 2 -0.023 -23.028912797387157 -5.012991999568648 -8.880681498113155 0 0 0
549 6 1 -0.285 -0.2855213352951367 -6.275027196845379 -15.32242324368423 0 0 0
5108 51 1 -0.285 -22.632022394236664 -0.6420759970028165 -18.166228639368256 0 0 0
2417 24 2 -0.063 -7.285594149039918 -22.99780049155283 -18.28188356696946 0 0 0
402 4 3 0.093 -19.604369271422804 -19.954218214359575 -15.636174969507248 0 0 0
403 4 7 -0.328 -19.166213264864325 -18.143489316221277 -16.33376315407697 0 0 0
347 4 1 -0.285 -22.18055781611838 -15.340647573878488 -6.235229347736954 0 0 0
7686 77 2 -0.021 -22.031536927823865 -15.201285639069962 -17.226189622254193 1 0 0
2499 25 3 0.082 -15.405590538996275 -18.792939312613505 -17.43009111434297 0 1 0
2500 25 2 -0.023 -14.902226821958036 -20.07095964078217 -15.816468275311454 0 0 0
674 7 3 0.082 -14.265988494480059 -15.128899635772463 -17.66635501543228 0 0 0
2497 25 2 -0.023 -15.34461586218903 -19.899058497540853 -17.24720897901187 0 1 0
2501 25 3 0.082 -13.861804369974855 -19.739545138882562 -15.55876098104022 0 0 0
2656 27 1 -0.283 -9.835808588110869 -20.969903921148774 -16.05432347098982 0 0 0
4844 48 5 -0.019 -10.811454729837177 -19.150484265391263 -19.686679483647126 0 0 0
4845 48 3 0.093 -10.59353254162795 -18.228269497481836 -20.308153006225705 0 0 0
4841 48 2 -0.063 -11.69642734992545 -19.831158079812248 -20.740677132625017 0 0 0
4842 48 3 0.079 -12.753394364632882 -19.74007201742604 -20.443887925056153 0 0 0
4847 48 7 -0.328 -11.367830226638013 -19.069302375611926 -18.386717372402458 0 0 0
4846 48 3 0.093 -9.840383358991124 -19.63982406567929 -19.50352269940908 0 0 0
4848 48 4 0.211 -11.882099246689972 -19.92815681677343 -18.133751694927533 0 0 0
659 7 3 0.083 -10.13031860994049 -13.786216895955542 -19.792600960552868 0 0 0
673 7 3 0.082 -16.003273986879293 -14.912608511279455 -18.004830573525176 0 0 0
2658 27 3 0.082 -10.90577622010732 -19.166236022043897 -16.12127016559555 0 0 0
669 7 3 0.082 -13.243206137818328 -16.94878523894543 -18.03674911560021 0 0 0
668 7 2 -0.023 -13.907746321691487 -17.18233214948213 -18.904435287980334 0 0 0
670 7 3 0.082 -13.882153202646265 -18.28747673201362 -19.100912964897923 0 0 0
2657 27 2 -0.023 -9.981159712815339 -19.595747565021576 -15.658002500726129 0 0 0
2659 27 3 0.082 -9.120933357984791 -19.13653055320136 -16.204975908992367 0 0 0
4840 48 1 -0.295 -11.50001986881475 -21.19508810790521 -20.857761856691404 0 0 0
2496 25 1 -0.283 -14.317789421027568 -20.567973945903027 -17.954328846020086 0 1 0
2654 27 3 0.082 -11.84116537862718 -20.970789661007814 -16.632584658280727 0 0 0
658 7 2 -0.023 -11.13185389770939 -14.274817280891819 -19.694458933525503 0 0 0
654 7 2 -0.023 -10.372038426429393 -15.220796173685606 -17.660390597648924 0 0 0
1394 14 3 0.082 -8.617701714576175 -16.383479712722952 -22.41265108117145 0 0 0
4843 48 3 0.079 -11.472727683059158 -19.36563721816019 -21.742304876642482 0 0 0
501 5 5 -0.019 -0.10733417647750088 -9.173382453239125 -10.508396586515095 0 0 0
655 7 3 0.083 -9.971465543177173 -16.042247507627597 -18.30742574295271 0 0 0
2121 21 4 0.211 -15.487584142041191 -22.979318866531628 -4.476937542934749 0 1 0
2653 27 2 -0.023 -10.925849402492977 -21.595352022645518 -16.81122280338964 0 0 0
3933 39 3 0.079 -4.999832751616445 -1.2042096963808362 -5.351950955913271 0 0 0
2655 27 3 0.082 -10.623517487298852 -21.54494400925792 -17.88505552666836 0 0 0
664 7 1 -0.285 -12.149914411696763 -16.36157130947965 -20.15053382937474 0 0 0
656 7 3 0.083 -9.544285077196 -14.534617355426453 -17.434556471064266 0 0 0
665 7 2 -0.023 -13.530974693353611 -16.426128131231845 -20.218403509048798 0 0 0
666 7 3 0.083 -13.899957496328112 -16.98512916534578 -21.10191811310603 0 0 0
1432 15 3 0.083 -8.694564372178316 -19.663865937146284 -22.656944736021295 0 0 1
4839 48 3 0.08400000000000001 -9.420505203137155 -21.511381225320658 -20.910801659043415 0 0 0
5789 58 3 0.082 -22.429281769012643 -18.059572539828117 -5.657806357224285 1 0 0
651 7 2 -0.023 -10.905266690365137 -15.956805013573527 -16.372136079209742 0 0 0
4838 48 3 0.08400000000000001 -10.251001593611399 -21.004070570057603 -22.536012358934705 0 0 0
2397 24 3 0.082 -4.573016648346915 -22.647729402109757 -9.25414604741605 0 1 0
10544 248 9 0.41 -15.504166967454115 -13.61824962538363 -23.01474392391748 0 0 1
2493 25 2 -0.023 -14.742204952550612 -21.86337050984135 -18.24918395977432 0 1 0
4837 48 2 -0.021 -10.315570341173089 -21.570562241095107 -21.580993300084607 0 0 0
698 7 3 0.08400000000000001 -22.334198299215107 -11.505941871651551 -9.33298601261072 0 0 0
412 5 3 0.079 -20.73965393191473 -13.25204464953241 -1.8756402074369554 0 0 0
762 8 2 -0.023 -17.455671445575863 -0.759841658942463 -5.988873998709803 0 0 0
523 6 3 0.083 -1.4135060049019046 -15.707933234805429 -17.961378503490472 0 0 0
1436 15 3 0.082 -7.179691444633951 -21.126488744360092 -21.24030664623707 0 0 1
2418 24 3 0.079 -7.902584722318057 -22.07523567666487 -18.321867222124965 0 0 0
296 3 2 -0.063 -7.017874521531741 -14.9693784946196 -15.86588174932281 0 0 0
1455 15 2 -0.023 -0.7931461883516846 -16.163386869124494 -21.720366915921947 0 0 0
1434 15 2 -0.023 -6.996407817685114 -20.046598411033642 -21.35975051893115 0 0 1
1437 15 1 -0.283 -7.653588402705571 -19.509434360857572 -20.22154907837377 0 0 1
1440 15 3 0.082 -7.7421543554507615 -19.632826082048492 -18.214668769164245 0 0 1
1443 15 3 0.082 -6.219466657199078 -17.81144707631431 -19.989619495200618 0 0 0
1442 15 3 0.082 -7.099136864421068 -17.38816578128734 -18.50279870272262 0 0 0
1441 15 2 -0.023 -6.302092224742356 -18.072625250437518 -18.91557076008407 0 0 0
1444 15 1 -0.283 -5.016104363788926 -18.19323528696712 -18.230994719833948 0 0 0
1439 15 3 0.082 -6.221333428370212 -20.31480773388592 -18.94393758993506 0 0 0
1438 15 2 -0.023 -6.944924967277064 -19.451815786331515 -18.97536964188258 0 0 0
1449 15 3 0.082 -3.4104322576074964 -18.566262920002096 -20.057127933404335 0 0 0
63 1 3 0.082 -3.9825991533865093 -19.493722557911664 -14.76017302825188 0 0 0
1451 15 1 -0.284 -2.4446830222897304 -16.81859595675658 -20.11093090454273 0 0 0
1445 15 2 -0.023 -4.014559100770239 -17.203830626256078 -18.38859088537331 0 0 0
1448 15 2 -0.023 -2.97071849279855 -17.858445866418837 -19.310299135255256 0 0 0
4815 48 3 0.082 -3.4712715765218576 -22.176832790164553 -19.700989179111296 0 1 0
1447 15 3 0.082 -4.346443675577408 -16.226049825858112 -18.87021815240008 0 0 0
1450 15 3 0.082 -2.1369351031346113 -18.26884476179832 -18.66682826762431 0 0 0
1446 15 3 0.082 -3.609449317432972 -16.899989066184105 -17.38992361636814 0 0 0
2411 24 3 0.082 -4.3905180700163555 -21.626341596316696 -16.605586190579672 0 0 0
2410 24 2 -0.023 -5.014393594195582 -22.531140471677475 -16.37858890180915 0 0 0
4813 48 2 -0.023 -2.8942162776594387 -22.569153309814173 -20.56800624852866 0 1 0
1399 14 1 -0.283 -6.269030427600299 -16.211800299959112 -22.79764656224086 0 0 1
65 1 1 -0.284 -2.8428020766625863 -19.700030851086645 -16.457489607292953 0 0 0
1452 15 2 -0.023 -1.4510645143174408 -17.265625295746933 -21.04501617801628 0 0 0
1435 15 3 0.082 -5.885366285959897 -19.885972693838905 -21.502004376358705 0 0 1
67 1 3 0.082 -2.137416914310382 -20.86163261038955 -18.04484682000096 0 0 0
297 3 3 0.079 -6.060398049326011 -15.549197088189906 -15.955565027161551 0 0 0
4814 48 3 0.082 -2.736073659153952 -21.723971461851917 -21.285867713780597 0 1 0
705 7 3 0.093 -22.89358406868365 -8.802964108913153 -12.889650267244841 1 0 0
3024 30 3 0.079 -10.061339234645304 -22.46664737860875 -1.5779636171997424 0 1 0
2416 24 1 -0.295 -5.917816886436743 -22.676248968858303 -18.51525569332366 0 0 0
464 5 3 0.083 -0.5687144939822666 -14.141409972013529 -12.306204273416261 0 0 0
298 3 3 0.079 -7.73408464586721 -15.36270252371223 -16.628614922769138 0 0 0
1400 14 2 -0.023 -4.82701960009987 -16.293644702781698 -22.89968374565877 0 0 1
1453 15 3 0.082 -1.9377266255598542 -17.89421506907435 -21.823745564260648 0 0 0
4130 41 2 -0.021 -8.048627474631846 -0.09955602709694844 -2.03077216310869 0 0 0
1431 15 2 -0.023 -7.5799972679069025 -19.53299161964193 -22.641976230881593 0 0 1
66 1 2 -0.023 -1.9874169369552845 -20.712962667036937 -16.947028605162664 0 0 0
7684 77 3 0.079 -20.467749371749854 -13.665923291079896 -14.886546660695512 1 0 0
1454 15 3 0.082 -0.6632772527963802 -17.918530675527258 -20.59087920501991 0 0 0
2833 29 3 0.093 -1.3853634032121178 -2.6302032391666046 -5.076010213656133 0 0 0
1401 14 3 0.082 -4.427279386535201 -16.331269043903205 -21.841202628232487 0 0 1
5113 51 3 0.082 -19.570003676501383 -0.27713466523535857 -18.253395501662105 0 0 0
68 1 3 0.082 -2.123370962290199 -21.736518381087652 -16.45051527593886 0 0 0
921 10 3 0.08400000000000001 -0.5053218049206656 -19.332167745150443 -1.4038414370769026 0 1 0
3425 34 3 0.08400000000000001 -22.627680773460696 -20.8835871535888 -2.3692867644486633 1 0 0
7681 77 3 0.093 -20.927909198650507 -16.70662688434065 -14.875722418234968 1 0 0
2639 27 2 -0.023 -14.72282743506772 -22.850193156403133 -12.56178322178769 0 1 0
7166 71 3 0.079 -21.945715158183074 -10.513184042597198 -18.651046926674745 0 0 0
7169 71 3 0.093 -21.341807271558462 -13.354036278984827 -19.96594206634313 1 0 0
8030 80 1 -0.276 -19.366040657508368 -14.701286498712282 -20.952366069437318 0 0 0
8027 80 2 -0.023 -18.125679923407986 -13.973604340894976 -21.08462752166714 0 0 0
111 2 2 -0.021 -16.600598950786733 -12.119297211657688 -16.84279093710317 0 0 0
7170 71 7 -0.328 -19.978946202472514 -12.04153822511139 -19.44344488691371 0 0 0
7171 71 4 0.211 -19.414828947437442 -11.990210220660058 -20.215837212975657 0 0 0
7167 71 5 -0.019 -21.330259552857903 -12.268938105211204 -19.789189119125147 1 0 0
6869 69 4 0.211 -15.867545952216346 -9.11689901146208 -17.77731874848654 0 0 0
110 2 1 -0.295 -17.14536830943413 -10.831072644134728 -16.603810064635272 0 0 0
112 2 3 0.08400000000000001 -17.44234031538976 -12.847012696031133 -17.05699563500582 0 0 0
7168 71 3 0.093 -21.643430402640085 -11.788316104822146 -20.74934216182004 1 0 0
6881 69 2 -0.023 -20.75736386927949 -7.943349235055383 -21.000350307110583 0 0 0
6880 69 3 0.08400000000000001 -19.440392210595892 -9.673322099916712 -20.808009610277498 1 0 0
6878 69 2 -0.021 -19.913267772034494 -8.893993972928785 -20.154902898258694 0 0 0
6876 69 3 0.079 -17.35339999115755 -9.45038253532721 -19.365661925091352 0 0 0
6879 69 3 0.08400000000000001 -20.446048080127024 -9.384028578339239 -19.310461691481386 0 0 0
7164 71 2 -0.063 -22.201228974038504 -11.616373471804817 -18.726454784437955 0 0 0
681 7 3 0.082 -16.449083885568196 -16.25461999900573 -14.024126628417797 0 0 0
113 2 3 0.08400000000000001 -16.087203529620236 -12.455319292718823 -15.898816262118205 0 0 0
6870 69 6 -0.328 -15.802105635790205 -8.220462942853935 -17.472204533143387 0 0 0
6877 69 1 -0.295 -18.876517612194903 -8.07351738793464 -19.607036143612326 0 0 0
6874 69 2 -0.063 -17.81828344840826 -8.601005558258196 -18.805892110739 0 0 0
6875 69 3 0.079 -18.347825026361537 -9.013896954909686 -17.90434891389242 0 0 0
104 2 5 -0.019 -19.57454186363506 -11.277568619160995 -16.296936450664678 0 0 0
105 2 3 0.093 -19.74979894107947 -10.390969199899446 -16.967091216559346 0 0 0
117 2 1 -0.283 -15.92861286478114 -11.962276903473246 -19.10415267074369 0 0 0
107 2 2 -0.063 -18.187668086299972 -10.966027656675289 -15.612419991680795 0 0 0
106 2 3 0.093 -19.578661114497272 -12.183021372950604 -16.938675384042167 0 0 0
8028 80 3 0.083 -17.95173236893124 -13.467123755104343 -20.10024184376108 0 0 0
114 2 2 -0.023 -15.431258706639422 -12.00581996485358 -17.80136525766431 0 0 0
122 2 3 0.082 -15.808922282443591 -10.33360387642762 -20.932472636395254 0 0 0
6884 69 1 -0.283 -21.60466683689087 -8.796436520413062 -21.849535938910392 0 0 0
116 2 3 0.082 -14.99824120341129 -10.980106536852135 -17.653847007189427 0 0 0
172 2 3 0.082 -16.123940887794326 -8.350849243652096 -22.6811486899784 0 0 0
8024 80 2 -0.023 -18.342095157865053 -12.8729723559204 -22.08841707811743 0 0 0
747 8 3 0.082 -11.880638237748336 -4.266544755413303 -0.4726551792932696 0 0 0
7688 77 3 0.08400000000000001 -21.97181296180891 -14.42843853142221 -18.032411651172946 1 0 0
103 2 6 -0.328 -20.72912174240703 -11.19597665276363 -15.50147229889144 0 0 0
6392 64 3 0.082 -21.58194761356332 -9.11858790209607 -16.196976408675326 0 0 0
8026 80 3 0.083 -18.16450716302327 -11.845242638839483 -21.681476467655415 0 0 0
6882 69 3 0.082 -20.172237472503017 -7.347552279957892 -21.73468257403139 0 0 0
8025 80 3 0.083 -19.404793841344336 -12.886705499234402 -22.5136442123933 0 0 0
7053 70 3 0.083 -1.0961654664103868 -9.02782532756316 -21.766948154391805 0 0 1
7683 77 3 0.079 -19.79049565028761 -14.710047774661337 -16.18183611957881 1 0 0
660 7 3 0.083 -11.887097943118935 -13.45402275676934 -19.874312455986598 0 0 0
657 7 1 -0.276 -11.472837014530631 -14.633306682050883 -18.332846831387755 0 0 0
121 2 2 -0.023 -14.992497436932394 -11.06220754923244 -21.193556118386383 0 0 0
123 2 3 0.082 -15.165485565093814 -11.457330748873472 -22.23295887722218 0 0 0
4159 42 3 0.083 -8.738737169720455 -6.667695283553972 -22.249182467180695 0 0 1
662 7 3 0.083 -10.428852230180832 -15.863467540983239 -21.091376532860785 0 0 0
661 7 2 -0.023 -11.371159814116048 -15.329439475661577 -20.775395692758007 0 0 0
188 2 2 -0.023 -10.368060855150018 -11.397959596372864 -21.395640851271338 0 0 1
189 2 3 0.082 -11.228816493111559 -12.087566067027437 -21.211329673499435 0 0 1
193 2 3 0.08400000000000001 -9.7558928778755 -13.21984508424108 -22.110337831993434 0 0 1
667 7 3 0.083 -14.069938666332868 -15.443233081722214 -20.134511587331467 0 0 0
663 7 3 0.083 -12.065535051548949 -14.997222395892692 -21.577908673646405 0 0 0
115 2 3 0.082 -14.646263030956483 -12.78242472369691 -17.731378301180214 0 0 0
118 2 2 -0.023 -14.95222106845678 -12.19192181080298 -20.199266136779325 0 0 0
119 2 3 0.083 -15.323272492676576 -13.07092159416372 -20.78476682235764 0 0 0
120 2 3 0.083 -13.905180555898243 -12.345673965079543 -19.800951031884242 0 0 0
124 2 1 -0.283 -13.797897033584693 -10.282746735681092 -21.150642991360463 0 0 0
125 2 2 -0.023 -14.00159984665324 -9.105228499963278 -20.40805427472247 0 0 0
127 2 3 0.082 -14.871296560403177 -8.541869618035673 -20.810397889023115 0 0 0
638 7 3 0.082 -11.764683317442993 -10.598937906367082 -18.409142875856848 0 0 0
126 2 3 0.082 -14.256858797360607 -9.259597919191414 -19.340265032592026 0 0 0
128 2 2 -0.023 -12.73772736285612 -8.234174018420617 -20.58345011115577 0 0 0
191 2 2 -0.021 -9.224846768101893 -12.252324491421586 -21.89374086832597 0 0 1
194 2 1 -0.295 -8.29533336852131 -12.390816415393909 -20.78724403330087 0 0 0
199 2 3 0.093 -6.402867656287334 -13.004349020526863 -19.171586822080144 0 0 0
190 2 3 0.082 -10.256226131153074 -10.80395921581673 -20.446361752223574 0 0 1
2554 26 3 0.082 -6.977163013718201 -8.751285520721721 -16.7072132325441 0 0 0
642 7 3 0.082 -12.182473867160997 -12.564217892129399 -17.438082543503633 0 0 0
640 7 2 -0.023 -11.702251440058214 -11.875984905426526 -16.698874182445145 0 0 0
195 2 2 -0.063 -7.164106105171472 -13.15042975792989 -21.20512875206256 0 0 0
2550 26 3 0.082 -7.474886467621534 -9.271484511982564 -18.8953215552417 0 0 0
648 7 3 0.083 -12.811932482066592 -14.327546703956719 -15.91111340578803 0 0 0
643 7 1 -0.284 -12.397894901898013 -12.023677641388327 -15.446357637767246 0 0 0
130 2 3 0.082 -11.800457792903678 -8.846775769564708 -20.640800546800012 0 0 0
2549 26 2 -0.023 -7.6065860293650704 -8.17505821617443 -18.63483568447899 0 0 0
633 7 2 -0.023 -11.238933656455785 -8.757601036912074 -15.694953080585593 0 0 0
634 7 3 0.082 -12.287859133432612 -8.425066634506647 -15.878681544471519 0 0 0
2552 26 2 -0.023 -6.694950729731399 -7.9631787074133875 -17.472604081612552 0 0 0
294 3 3 0.08400000000000001 -8.922016255428227 -13.145706943268499 -16.099444860878716 0 0 0
192 2 3 0.08400000000000001 -8.660021613954516 -11.806409979047277 -22.763257100853348 0 0 0
4155 42 3 0.082 -7.681433408417293 -8.626423108931268 -21.583850233450047 0 0 0
636 7 1 -0.283 -10.771820751984755 -9.677697964975302 -16.694098188039742 0 0 0
637 7 2 -0.023 -11.800308254316253 -10.54119296875927 -17.277447783022414 0 0 0
639 7 3 0.082 -12.787022561920303 -10.115786876108553 -16.96875016436822 0 0 0
802 8 3 0.079 -14.694643377122718 -9.04208720736321 -15.544641756149945 0 0 0
2831 29 5 -0.019 -0.8852363513862365 -3.354648052209445 -4.393075753845473 0 0 0
5715 57 2 -0.023 -2.2616674735095295 -22.89993000805864 -6.264081727865971 0 0 0
350 4 3 0.083 -21.95909458372561 -14.022409468588002 -7.765311467774211 0 0 0
202 2 4 0.211 -8.210296065699419 -14.360115449930015 -19.382629272381354 0 0 0
201 2 7 -0.328 -7.311294043057993 -14.777812113748166 -19.43738020644545 0 0 0
10368 190 8 -0.82 -0.49627175089728226 -7.863816549604358 -19.55909306036505 0 0 0
198 2 5 -0.019 -6.463434023354829 -13.807735403048222 -19.95484790314733 0 0 0
10539 247 8 -0.82 -1.4967529316861885 -10.600355702710848 -18.86348007764401 0 0 0
10540 247 9 0.41 -0.7773989620794808 -11.046738856609972 -19.444441969681698 0 0 0
10369 190 9 0.41 -0.588890124669323 -7.346869812982689 -20.44437775419602 0 0 0
196 2 3 0.079 -6.418614409645603 -12.573190765991006 -21.808580560049617 0 0 0
197 2 3 0.079 -7.63821119099296 -13.918123756902801 -21.876441464995622 0 0 0
7474 74 4 0.211 -1.871615573715527 -13.220104268996005 -21.58541360594591 0 0 1
4150 42 1 -0.295 -5.312328531234055 -10.124660087526 -22.073934752706094 0 0 0
200 2 3 0.093 -5.427613853122725 -14.152621881696444 -20.082759788310007 0 0 0
10541 247 9 0.41 -1.7389996407402712 -11.23287870860163 -18.095736538296322 0 0 0
4145 42 3 0.093 -6.099065615672636 -10.837652527375127 -19.553682561369 0 0 0
4146 42 3 0.093 -4.787040638122441 -11.855702965377125 -20.005589711615166 0 0 0
4144 42 5 -0.019 -4.999087998035662 -10.778727897044728 -19.719397124955176 0 0 0
4147 42 2 -0.063 -4.615098494776511 -9.861431767819772 -20.873113916738212 0 0 0
7472 74 3 0.093 -3.337191672180147 -11.731131000794385 -22.186565317557754 0 0 1
4143 42 6 -0.328 -4.353126934541823 -10.288393469412814 -18.515015429070647 0 0 0
4149 42 3 0.079 -4.866451246960668 -8.828443768407647 -20.552060411790055 0 0 0
4148 42 3 0.079 -3.5198089773761367 -10.01577956879106 -21.06071927926105 0 0 0
4142 42 4 0.211 -3.374192976976161 -10.28277286992056 -18.717216833267617 0 0 0
7473 74 7 -0.328 -2.671752318214729 -13.578315245909968 -22.058966721924364 0 0 1
2553 26 3 0.082 -5.698615572405902 -8.222159748087323 -17.89449321827047 0 0 0
2120 21 7 -0.328 -14.616624499476586 -22.96069594658462 -5.059189143437084 0 1 0
292 3 2 -0.021 -7.947729864378058 -12.629712594450503 -15.943739257009888 0 0 0
293 3 3 0.08400000000000001 -7.9071113553935675 -11.917531227477921 -16.81795446011608 0 0 0
7470 74 5 -0.019 -3.4306463800136697 -12.648845364566217 -22.789461745840136 0 0 1
534 6 3 0.082 -5.270421779358891 -11.920745963143414 -16.470905538959013 0 0 0
528 6 1 -0.283 -2.2239490089663327 -13.078779138244611 -17.01813604155579 0 0 0
10344 182 8 -0.82 -0.23884054011811173 -10.947003017895707 -15.645605669571601 0 0 0
7057 70 3 0.082 -2.708041679468387 -7.563235587658484 -21.614820667286235 0 0 1
10370 190 9 0.41 -1.3173736294074594 -8.351856854405607 -19.23429118147163 0 0 0
187 2 1 -0.283 -10.690404246244567 -10.519539963702629 -22.43364633481564 0 0 1
1457 15 3 0.083 -1.2427580486263778 -16.159114876378652 -22.736065362075966 0 0 0
7052 70 2 -0.023 -0.9570435325856366 -8.82768297926721 -22.85452496766619 0 0 0
525 6 2 -0.023 -1.4041309618143067 -14.175222080652569 -16.594244681325783 0 0 0
531 6 3 0.082 -4.135412429778977 -12.985700211252896 -18.061070009639103 0 0 0
295 3 1 -0.295 -6.793445432493591 -13.594834124858652 -16.10361790593773 0 0 0
524 6 3 0.083 -1.000973071022596 -14.14190205394193 -18.66327627413132 0 0 0
4153 42 3 0.08400000000000001 -5.266427910885721 -8.095063275193946 -22.474150950711053 0 0 0
4809 48 2 -0.023 -0.42941419080348453 -22.47323480933136 -20.327968614739035 0 1 1
522 6 2 -0.023 -0.7976264506349047 -14.801883319255037 -17.78848406307731 0 0 0
699 7 1 -0.295 -22.010366233335695 -10.601301982441724 -11.226707420183862 0 0 0
4151 42 2 -0.021 -5.811622493901265 -9.013348961217892 -22.809700537337285 0 0 0
4154 42 2 -0.023 -7.335743538758752 -8.887705075931335 -22.621780673119215 0 0 0
5807 58 3 0.083 -16.539399872954164 -17.268156251932666 -0.4613918375913677 0 0 0
6886 69 3 0.083 -22.76744489646628 -7.2242468087027145 -22.590752507141424 0 0 1
6885 69 2 -0.023 -22.93915587210359 -8.258450634303154 -22.173549330013934 0 0 0
919 10 2 -0.021 -0.22396835878561916 -20.066364826080555 -0.6198610832876241 0 1 0
6393 64 1 -0.283 -21.761666895081117 -7.598979647185709 -17.56665655429049 0 0 0
467 5 3 0.082 -0.6191168141735339 -14.069821529021427 -9.368893273378493 0 0 0
7056 70 2 -0.023 -2.5266446372229687 -7.097443332900296 -22.60169465107725 0 0 0
4219 42 3 0.082 -15.669625751842842 -0.7562433693652579 -21.013922310521142 0 0 0
6883 69 3 0.082 -21.49554410919646 -7.344498755805089 -20.40346657878967 0 0 0
6871 69 5 -0.019 -16.712814360908826 -7.554151758889789 -18.367580624727914 0 0 0
6873 69 3 0.093 -17.163729659596278 -6.635573350586178 -17.903583225343485 0 0 0
7165 71 3 0.079 -22.063712322225392 -12.134540553734405 -17.745259471889067 0 0 0
6872 69 3 0.093 -16.116601394974726 -7.393033266427306 -19.296038351957783 0 0 0
3432 34 3 0.093 -22.504943718250445 -22.18000318165979 -5.1823661103984975 0 0 0
160 2 2 -0.023 -17.881972453540236 -4.8078084586377585 -20.999760666125997 0 0 0
159 2 1 -0.285 -18.93513051342388 -3.9474910387189084 -20.45414038230633 0 0 0
158 2 3 0.083 -20.35153558102455 -5.4739098261454835 -20.851306099176455 0 0 0
156 2 2 -0.023 -20.208368345541775 -4.518753331509231 -20.281123428917926 0 0 0
153 2 2 -0.023 -20.486975020007694 -4.8762038755264605 -18.840302521003462 0 0 0
152 2 1 -0.276 -20.63339141179439 -3.593406689076847 -18.267951190401142 0 0 0
149 2 2 -0.023 -19.936176732068155 -3.474289413114956 -17.01105102370108 0 0 0
151 2 3 0.083 -19.632500210720337 -4.460109375396897 -16.580325287041596 0 0 0
146 2 2 -0.023 -18.60687980617469 -2.7166678350259055 -17.312301796079794 0 0 0
147 2 3 0.083 -18.706110821377877 -2.4336997249986965 -18.392174361008667 0 0 0
145 2 1 -0.285 -17.474099703289852 -3.519573319267675 -17.111410367191286 0 0 0
154 2 3 0.083 -21.420515157189158 -5.462029272096721 -18.87412600076221 0 0 0
155 2 3 0.083 -19.65645888096792 -5.460824533574442 -18.38523964468157 0 0 0
143 2 3 0.083 -16.321351058591944 -2.7382615402680592 -18.648437157396966 0 0 1
148 2 3 0.083 -18.480829705472154 -1.8051554449534208 -16.690070908607616 0 0 0
150 2 3 0.083 -20.657874407412812 -2.928238346237709 -16.351210714445926 0 0 0
157 2 3 0.083 -20.954192197928162 -3.816840297735663 -20.728119173623917 0 0 0
162 2 3 0.083 -16.927780931365703 -4.183444944926496 -20.99302912450549 0 0 0
142 2 2 -0.023 -16.249767779597732 -2.906747043550979 -17.532247894038363 0 0 0
141 2 3 0.082 -15.663704387704469 -4.830973042869736 -16.88332008410613 0 0 0
161 2 3 0.083 -17.79070538848042 -5.570313174829629 -20.169214711617723 0 0 0
349 4 3 0.083 -20.70824866860288 -13.865205397285335 -6.497882692633052 0 0 0
4221 42 2 -0.023 -18.149937408924373 -0.8488357300892666 -21.486006282804336 0 0 0
6437 64 3 0.082 -22.37402126906585 -2.515560261061797 -0.02097020369610547 0 0 0
6389 64 3 0.082 -19.51907804837938 -7.256359841772241 -16.829027417276286 0 0 0
6722 67 3 0.083 -0.19980801877501264 -16.569781201864963 -0.9859825343734201 0 0 0
4224 42 2 -0.023 -19.50798290585482 -0.5831339598977436 -22.07291921860431 0 0 0
139 2 2 -0.023 -15.212461928463716 -3.9700059981124873 -17.457068142795777 0 0 0
140 2 3 0.082 -14.352390426892905 -3.5042355977395836 -16.90637892162646 0 0 0
2442 25 3 0.083 -15.095722679855864 -18.000360066927378 -22.13974964168087 0 0 0
991 10 3 0.082 -1.1050891451707159 -2.0583642953721935 -13.542139909682733 0 0 0
5111 51 3 0.083 -21.049401295646188 -1.199859791685867 -19.507337233333242 0 0 0
9090 90 4 0.211 -21.972975865600006 -6.448949292681917 -0.5042159600914538 1 0 0
6390 64 2 -0.023 -21.469990798443593 -8.005681422769273 -16.205302231982735 0 0 0
6387 64 2 -0.023 -20.029048682668943 -7.575521516222953 -15.879103092402282 0 0 0
6391 64 3 0.082 -22.233463384178037 -7.559957488145068 -15.510945610786287 0 0 0
5788 58 2 -0.023 -22.1625323653134 -18.710665713718292 -4.78232510435603 1 0 0
6570 66 3 0.093 -18.249566163279635 -12.656541594858972 -0.5838877463761101 0 0 0
2491 25 3 0.082 -13.896125670125798 -22.52543759815638 -20.053998288629536 0 1 0
1456 15 3 0.083 -1.0814721869438308 -15.194215084818719 -21.208874450649546 0 0 0
4971 50 3 0.082 -5.35479946733598 -0.32042401239228013 -21.85547999849518 0 0 0
934 10 3 0.082 -3.028650613455845 -22.39918496360721 -2.7749118095861363 0 0 0
408 5 3 0.093 -22.429675446533928 -15.235959084657813 -2.1577369835328852 0 0 0
4227 42 1 -0.283 -20.16472483574233 -1.859730389642774 -22.14088319534506 0 0 0
784 8 3 0.082 -19.681648096032117 -1.289214596328172 -14.217795094681701 0 0 0
129 2 3 0.082 -12.85957312985912 -7.683915331664913 -21.531431088112743 0 0 0
2648 27 3 0.082 -12.367171586519095 -22.080955346903117 -14.112271148517356 0 1 0
144 2 3 0.083 -15.906866202749805 -1.9238350433325913 -17.091188694559015 0 0 1
2599 26 3 0.082 -11.18934249696194 -0.6531044131997952 -22.06435488795277 0 0 0
2536 26 3 0.08400000000000001 -7.888048256359992 -2.135395677084876 -22.326804158292603 0 0 1
2600 26 3 0.082 -12.789837777892417 -1.3615144665793366 -22.552576096349185 0 0 0
2541 26 1 -0.283 -7.249706780630559 -4.352756514962085 -21.39385715341449 0 0 1
138 2 1 -0.284 -14.807370200989423 -4.546559938181691 -18.690544996313815 0 0 0
2602 26 3 0.082 -12.410966047423035 -3.0824131433510615 -21.17046699123614 0 0 0
131 2 1 -0.283 -12.505222871915988 -7.249690203472214 -19.552549360245425 0 0 0
133 2 3 0.082 -14.169732576254942 -6.184651245698955 -20.337920679412502 0 0 0
132 2 2 -0.023 -13.19519828368822 -5.9848938515281915 -19.804728376543345 0 0 0