LAMMPS data file via write_data, version 2 Aug 2023, timestep = 50000, units = real

10547 atoms
9 atom types
10298 bonds
7 bond types
18449 angles
8 angle types
21000 dihedrals
4 dihedral types

-23.04187765481151 23.04187765481151 xlo xhi
-23.04187765481151 23.04187765481151 ylo yhi
-23.04187765481151 23.04187765481151 zlo zhi

Masses

1 15.9994
2 12.011
3 1.008
4 1.008
5 12.011
6 15.9994
7 15.9994
8 15.9994
9 1.008

Pair Coeffs # lj/cut/coul/long

1 0.2526 2.8492
2 0.0663 3.5812
3 0.0283 2.3734
4 0 0
5 0.245 2.8114
6 0.1195 3.1
7 0.1195 3.1
8 0.155 3.165
9 0 0

Bond Coeffs # harmonic

1 1109.29 1.12
2 399.792 1.43
3 299.844 1.52
4 400.034 1.53
5 310.707 1.41
6 179.254 0.971
7 1059.16 1.012

Angle Coeffs # harmonic

1 47.694 109.5
2 55.1271 109.5
3 47.635 109.6
4 55.1139 111
5 54.9931 110.3
6 180.46 109
7 30.1731 110
8 75.9 113.24

Dihedral Coeffs # harmonic

1 0.3011 1 3
2 1.4149 1 3
3 0.239 -1 3
4 0 1 1

Atoms # full

72 1 1 -0.283 -16.101405453463226 -16.273490361429456 -17.22414631068397 0 0 0
5833 58 2 -0.023 -22.57309109056364 -20.582700030524766 -17.913276503952122 1 0 1
599 6 2 -0.063 -16.11839442051176 -16.853355231218927 -21.215648435611662 0 0 0
598 6 1 -0.295 -16.58211176930802 -17.933950303811343 -20.40722983664233 0 0 0
601 6 3 0.079 -16.769869043658023 -15.969044481294432 -21.08027895266485 0 0 0
595 6 2 -0.021 -17.77553110368206 -17.658521097702327 -19.613092417969696 0 0 0
596 6 3 0.08400000000000001 -17.892429200915636 -18.436084777997408 -18.815450303539677 0 0 0
597 6 3 0.08400000000000001 -17.652671134939414 -16.762943918550814 -18.983886371633176 0 0 0
592 6 2 -0.023 -19.023671676171215 -17.42906492113211 -20.51698367797845 0 0 0
594 6 3 0.082 -19.16176293570222 -18.23237627414861 -21.283240324759507 0 0 0
593 6 3 0.082 -19.10258951213315 -16.425905799166614 -20.99925370881843 0 0 0
591 6 1 -0.283 -20.184789539013416 -17.683637047864014 -19.76408062031159 0 0 0
590 6 3 0.083 -19.826687787097935 -16.670467179015283 -17.903682318503577 0 0 0
588 6 2 -0.023 -20.597221283319023 -16.862539591172215 -18.6867030947544 0 0 0
5832 58 3 0.082 -21.81327153539594 -20.03546668497263 -16.032076891367346 1 0 1
4982 50 3 0.082 -0.7685244262776507 -21.87764459353847 -16.97931198113441 0 0 0
5842 58 3 0.083 -21.535461541354586 -21.690870813055103 -20.669892445494526 1 0 1
5830 58 2 -0.023 -22.778660264235203 -20.395677296145845 -16.45109979431297 1 0 1
912 10 5 -0.019 -17.201656353027893 -12.578006834296495 -21.754865771978753 0 0 0
585 6 2 -0.023 -21.535529841515924 -15.728003164540299 -19.223023675187143 0 0 0
73 1 2 -0.023 -15.15184654026931 -17.296102236513292 -17.514797096205726 0 0 0
5840 58 2 -0.023 -22.52803342022455 -22.224894704697224 -20.750637964687336 1 0 1
5834 58 3 0.082 -21.96926590317905 -19.725293106324497 -18.324653254510736 1 0 1
602 6 5 -0.019 -16.24789897524417 -17.219364074254266 -22.741904055209254 0 0 0
1838 19 2 -0.023 -9.291560929125634 -9.452611134050473 -21.67605882132912 0 0 1
76 1 2 -0.023 -15.634483021772944 -18.667827089802028 -17.216265326477114 0 0 0
2819 28 3 0.08400000000000001 -21.88150756144641 -10.53813261605021 -8.949716417031302 0 1 0
10211 137 9 0.41 -8.738025115365101 -22.13154566362763 -9.440083149656568 -1 0 0
586 6 3 0.082 -21.324207420154412 -15.470534275221377 -20.28808611849097 0 0 0
6978 70 1 -0.295 -17.440933239248746 -21.62390941163681 -22.80415741348724 1 0 1
4223 42 3 0.082 -13.046231427502013 -6.694152984570859 -21.155514417020072 0 0 1
5844 58 2 -0.023 -22.97870853728986 -20.0791597867533 -21.86543827418144 1 0 1
5836 58 1 -0.283 -21.947035751331267 -21.78138823169119 -18.41932973396067 1 0 1
83 1 2 -0.023 -14.252163232836219 -21.394334979306212 -15.244459381055954 0 0 0
84 1 3 0.083 -14.714262911303129 -20.955801483371687 -14.310436886369548 0 0 0
6975 70 2 -0.063 -16.990190742051844 -20.971284839446344 -21.59024899069821 1 0 1
4970 50 3 0.082 -0.44139453018497576 -16.12230040925664 -17.072156525757343 0 0 0
6976 70 3 0.079 -16.024303377961207 -20.47814468110349 -21.913382291386807 1 0 1
79 1 1 -0.283 -14.550571967487125 -19.438383379221282 -16.62824212732639 0 0 0
77 1 3 0.082 -15.800273173204053 -19.095722913736843 -18.236580784954597 0 0 0
6973 70 3 0.093 -16.55703579209024 -21.329196382418242 -19.441342038340927 1 0 1
6977 70 3 0.079 -17.807951056066184 -20.27870168195828 -21.32724877864639 1 0 1
46 1 3 0.083 -17.770979398340046 -21.426960227826914 -15.409062252563341 0 0 0
85 1 3 0.083 -13.154663348394777 -21.236896084561483 -15.18568520932179 0 0 0
6972 70 5 -0.019 -16.94955250845037 -21.88430848369872 -20.348031337751006 1 0 1
589 6 3 0.083 -21.299483746149715 -17.53583574513091 -18.111348031914424 0 0 0
5845 58 3 0.082 -22.597979450311584 -20.276406018696388 -22.91681520771975 1 0 1
5837 58 2 -0.023 -22.828211746444488 -22.579529204889905 -19.294573545099073 1 0 1
5820 58 3 0.082 -22.896793277045116 -17.23837693338886 -16.071189442497303 1 0 1
4971 50 3 0.082 -0.7323886285936787 -17.347674810128268 -15.656294689601863 0 0 0
2892 29 3 0.082 -0.0733587088102361 -1.0706294719108058 -4.863340077686384 0 0 0
4953 50 3 0.093 -0.540772348984742 -10.524203056006911 -12.137985177645357 0 0 0
600 6 3 0.079 -15.060182618063381 -16.585266696990278 -21.038647941849717 0 0 0
75 1 3 0.082 -14.783945080721265 -17.337226839810892 -18.573758274209162 0 0 0
82 1 3 0.082 -15.977980363272362 -20.985394269039613 -16.483880436659657 0 0 0
80 1 2 -0.023 -14.862660774603881 -20.836396322488525 -16.56342196256989 0 0 0
219 3 2 -0.023 -10.822047842124515 -21.40118291376924 -20.07014459626251 0 0 0
213 3 3 0.08400000000000001 -11.274390306668332 -19.26297497319522 -18.405945320963237 0 0 0
215 3 2 -0.023 -10.594229565173986 -21.220136417009666 -17.640448747828504 0 0 0
211 3 1 -0.295 -10.423774945753673 -19.003719045086214 -16.533965875078863 0 0 0
212 3 2 -0.021 -11.217616080187742 -19.786334018131335 -17.42347442322427 0 0 0
218 3 1 -0.283 -11.289142991265356 -21.77638766471901 -18.752663709521844 0 0 0
214 3 3 0.08400000000000001 -12.224664639139576 -20.003328365130773 -16.946077700567095 0 0 0
208 3 2 -0.063 -11.035746542621231 -17.752121562215514 -16.430651004389745 0 0 0
216 3 3 0.082 -10.72178204743414 -21.96368569071968 -16.81585790038686 0 0 0
217 3 3 0.082 -9.49241146570951 -21.212128269833265 -17.79723692661344 0 0 0
209 3 3 0.079 -10.309721956958017 -16.87045096879016 -16.2534957159453 0 0 0
7481 75 3 0.079 -9.050772990399322 -16.382379285208557 -18.073058290839224 0 0 0
7482 75 3 0.079 -8.931769448288167 -16.258295978323726 -19.914848068084186 0 0 0
221 3 3 0.083 -9.905822158068561 -20.779463485874697 -19.946076384883668 0 0 0
220 3 3 0.083 -10.609494457841475 -22.329276117531684 -20.660105574207385 0 0 0
7480 75 2 -0.063 -8.354325313430518 -16.398934521094766 -18.932078216517578 0 0 0
210 3 3 0.079 -11.504162544558564 -17.438098909031098 -17.382720800564982 0 0 0
4812 48 1 -0.284 -11.8361865702883 -15.250833018225828 -19.613658445585678 0 0 1
81 1 3 0.082 -14.4721033534814 -21.485158670866152 -17.383301155061254 0 0 0
7486 75 3 0.08400000000000001 -6.974307519915445 -16.365234582888892 -16.977855136131094 0 0 0
4813 48 2 -0.023 -11.838701423081574 -16.67968297481908 -20.038327364432863 0 0 1
4816 48 2 -0.023 -11.273669624431037 -16.50288185294261 -21.442161037094145 0 0 1
222 3 2 -0.023 -12.025477223342559 -20.745203252920643 -20.701447208429304 0 0 0
4821 48 3 0.082 -8.740937588489015 -17.40701028933011 -21.994000436516487 0 0 1
7475 75 4 0.211 -8.462632391885355 -18.999507346818255 -20.355364037945208 0 0 0
7476 75 6 -0.328 -8.59058839774254 -18.84806733528289 -19.38824718718036 0 0 0
7483 75 1 -0.295 -7.348673623111447 -15.382779581346409 -18.76382025791258 0 0 0
7484 75 2 -0.021 -6.440869866992351 -15.649777531560387 -17.689316345709372 0 0 0
4815 48 3 0.082 -11.124261768719714 -17.26553735165774 -19.393246118874572 0 0 1
10396 199 9 0.41 -8.60542959153574 -19.888211641048706 -16.636372637813075 0 0 0
4817 48 3 0.082 -10.503459615313103 -15.677426565997658 -21.402542427303946 0 0 1
224 3 3 0.082 -12.957314918275438 -21.283855527284473 -20.407447950257424 0 0 0
4814 48 3 0.082 -12.874871135684566 -17.118181776730996 -20.093064515124883 0 0 1
223 3 3 0.082 -12.222789373773503 -19.704787735959204 -20.342174866247262 0 0 0
4819 48 1 -0.283 -10.838014775160438 -17.761799550460417 -21.982264878643512 0 0 1
4826 48 1 -0.283 -8.454174116040628 -19.703717847034984 -22.084185261649615 0 0 1
1620 17 3 0.093 -0.23900189522436577 -8.199544675369234 -19.27999604056193 0 0 1
40 1 3 0.082 -18.598578781052176 -22.964413878245203 -11.915825408618485 0 0 0
4820 48 2 -0.023 -9.567849521605101 -17.73424371452112 -22.69124495895527 0 0 1
225 3 1 -0.283 -11.882503595774548 -20.845949714694683 -22.13847179327287 0 0 0
74 1 3 0.082 -14.227199383957391 -16.990717900062744 -16.957526654253613 0 0 0
207 3 3 0.093 -12.41141795540578 -18.85173226310565 -15.23268514454207 0 0 0
3413 34 2 -0.023 -19.766579020530653 -0.2707246102807268 -3.9152662954995456 0 0 0
227 3 3 0.082 -12.987089999367354 -19.07629236066621 -22.415023147373166 0 0 0
4965 50 1 -0.283 -0.4838058999241177 -14.92203235646515 -14.791428686521893 0 0 0
4818 48 3 0.082 -12.114026609207505 -16.168588195731086 -22.094984802198546 0 0 1
7619 76 1 -0.285 -0.01147989372077518 -12.736459167060175 -5.128880468369747 0 1 -1
7477 75 5 -0.019 -7.718457522065195 -17.78342858051602 -18.973970849631183 0 0 0
7479 75 3 0.093 -7.389889886122052 -18.08478643851862 -17.94251687941363 0 0 0
7485 75 3 0.08400000000000001 -5.531672091393112 -16.19301309325219 -18.08447120634378 0 0 0
7478 75 3 0.093 -6.801062034483682 -17.70753787134221 -19.582727920704652 0 0 0
4839 48 3 0.08400000000000001 -2.925361258478368 -18.96238434781223 -19.07969303086381 0 0 1
4833 48 1 -0.283 -5.511344281474653 -19.887818385089677 -20.739353758057174 0 0 1
4834 48 2 -0.023 -4.731055501943551 -20.06964439268781 -19.574520510615855 0 0 1
4840 48 1 -0.295 -4.423741735610534 -18.600543620729166 -17.679840866215343 0 0 1
4837 48 2 -0.021 -4.056065313455363 -18.81348698977361 -19.01897582400542 0 0 1
4838 48 3 0.08400000000000001 -4.25149926689517 -17.90308709419198 -19.63571163462766 0 0 1
4836 48 3 0.082 -5.4211327300794885 -20.387164546950928 -18.76419577455044 0 0 1
4841 48 2 -0.063 -3.4545236314090566 -18.306912434898987 -16.734600823521706 0 0 1
4843 48 3 0.079 -2.824240802548971 -19.21633952351894 -16.817285243732595 0 0 1
4835 48 3 0.082 -3.9593508514003872 -20.894519837510966 -19.711985100306727 0 0 1
4842 48 3 0.079 -2.8702040235102153 -17.415604905463578 -17.09094490710597 0 0 1
4830 48 2 -0.023 -6.526463343598827 -20.844462391255316 -21.096202465877916 0 0 1
4832 48 3 0.083 -7.160978648783116 -21.03098620160188 -20.20717967273641 0 0 1
4831 48 3 0.083 -5.949849752844408 -21.773728267403577 -21.33619995736182 0 0 1
1656 17 3 0.082 -6.221744864724645 -16.856848845051914 -21.452166458643465 0 0 1
4981 50 3 0.082 -2.287145865063831 -21.208155297029343 -17.70611237810224 0 0 0
8100 81 2 -0.023 -0.539148508701011 -22.757130130189427 -6.162337171253508 0 1 0
3832 38 3 0.079 -5.418652138537684 -21.888123669598276 -17.221046800371706 0 1 1
3836 38 3 0.093 -5.0530428703756485 -22.253089536876757 -14.904631323521842 0 1 1
558 6 3 0.083 -17.263139269547388 -4.029846392193452 -22.769446104562995 0 0 0
4845 48 3 0.093 -4.561435656700471 -19.129018206485448 -15.040525380160993 0 0 1
4844 48 5 -0.019 -4.07211725037601 -18.177061687086912 -15.349248590812323 0 0 1
4846 48 3 0.093 -4.840389614251766 -17.36402988853268 -15.47991374855566 0 0 1
4975 50 3 0.082 -0.08025355321022332 -17.828107824883475 -18.358632731400697 0 0 0
4980 50 2 -0.023 -1.1801789494737278 -21.345221616153655 -17.89283555840335 0 0 0
8502 85 3 0.083 -0.07804584566224904 -1.3711051343071539 -9.43678593563098 0 0 0
3416 34 2 -0.023 -18.84912613675082 -0.6431237821322711 -5.071332103320138 0 0 0
3264 33 3 0.082 -17.250111581356695 -22.392851373455848 -8.156664021946488 0 1 0
1652 17 3 0.082 -5.249960678868778 -14.798983345268677 -20.125557233989813 0 0 1
10395 199 8 -0.82 -7.639046218811815 -19.890523949891012 -16.300484350028906 0 0 0
587 6 3 0.082 -22.57304745474907 -16.102951252169415 -19.033163698792805 0 0 0
3426 34 1 -0.295 -22.267213240590973 -0.3588781304775104 -8.583261692881269 0 0 0
4991 50 3 0.083 -3.7860079377922133 -22.07829829117559 -21.66006456818076 0 0 0
3831 38 2 -0.063 -5.100043972785592 -22.935573958582946 -16.991121183810016 0 1 1
1825 19 3 0.079 -12.638363130716167 -14.272101250700905 -22.970655443748893 0 0 1
6981 70 3 0.08400000000000001 -19.344511430484374 -20.787159819305124 -22.435092993448816 1 0 1
3183 32 2 -0.023 -13.804815942555786 -22.29512013627272 -10.70257004237302 0 1 0
69 1 2 -0.023 -15.876512763606614 -15.53222591766875 -16.00027823185087 0 0 0
584 6 1 -0.283 -21.26243239494696 -14.499704089725054 -18.518250464999912 0 0 0
68 1 3 0.082 -17.94455206370229 -14.908604506899664 -16.34370907704294 0 0 0
66 1 2 -0.023 -17.058727028286196 -14.56565041164709 -15.758694377340124 0 0 0
64 1 3 0.082 -19.46615413074006 -14.082375616433874 -14.95382468749181 0 0 0
67 1 3 0.082 -16.896380009794314 -13.462439506865381 -15.811730046672752 0 0 0
362 4 2 -0.023 -21.068084218548165 -9.897606805083898 -15.580809454332634 0 0 0
65 1 1 -0.284 -17.535944072619294 -14.83013294545385 -14.413342464834919 0 0 0
62 1 2 -0.023 -18.759871862766225 -14.19079998446111 -14.087413750886366 0 0 0
581 6 2 -0.023 -20.171677693561556 -13.802847421893631 -19.14225857399066 0 0 0
578 6 2 -0.023 -20.21017670820835 -12.346314935342143 -18.740686545799278 0 0 0
577 6 1 -0.283 -19.80991954055922 -11.615920431425211 -19.982982967089 0 0 0
580 6 3 0.082 -19.520838403184914 -12.091674688665824 -17.90126672412071 0 0 0
63 1 3 0.082 -18.4159338329527 -13.127779924512762 -13.829908707970807 0 0 0
575 6 3 0.082 -20.7789107475972 -9.993642898762179 -19.22088343687727 0 0 0
574 6 2 -0.023 -19.8299067718337 -10.206259545109926 -19.77324302669059 0 0 0
576 6 3 0.082 -19.029768136744636 -9.869328738460055 -19.048233816372832 0 0 0
4212 42 3 0.082 -16.83248931032857 -10.207412344711399 -19.810513914644698 0 0 1
358 4 2 -0.023 -20.38006251327254 -7.807426062060365 -16.614572474414537 0 0 0
361 4 1 -0.285 -21.38985764973217 -8.762250853228258 -16.407696992889484 0 0 0
571 6 2 -0.023 -19.511650324440335 -9.594148739740916 -21.142997163992277 0 0 0
570 6 1 -0.284 -18.218590606137056 -8.951287427419361 -21.21527404802936 0 0 0
573 6 3 0.082 -20.300017492930007 -8.778143982102538 -21.275957221519658 0 0 0
572 6 3 0.082 -19.671608799302284 -10.319261721999236 -21.979073540519778 0 0 0
567 6 2 -0.023 -18.079439320659677 -7.9553613554050795 -22.28050463908635 0 0 0
4208 42 3 0.082 -17.216680111731915 -10.891571566092443 -17.64094589061905 0 0 1
4206 42 1 -0.284 -16.669449474808722 -8.896285720449736 -17.34315817680848 0 0 1
359 4 3 0.083 -19.504829470209707 -8.495751956484462 -16.462140722869524 0 0 0
4125 41 3 0.083 -21.76930962729139 -8.049683616191224 -20.125846829179842 0 0 1
564 6 2 -0.023 -16.565423044843964 -7.490889014171721 -22.145064066617863 0 0 0
565 6 3 0.083 -16.20204073734223 -7.825743726696402 -21.133028631461716 0 0 0
579 6 3 0.082 -21.190251525353226 -12.127571168664495 -18.227830839393373 0 0 0
913 10 3 0.093 -17.218343668281264 -11.521965679880669 -21.367308827812483 0 0 0
582 6 3 0.082 -19.19206548140063 -14.200479057085102 -18.78878496089304 0 0 0
583 6 3 0.082 -20.081386293650546 -13.761120309485985 -20.272911088371664 0 0 0
365 4 2 -0.023 -22.219804019051207 -10.834976068148114 -15.537046864989998 0 0 0
366 4 3 0.082 -21.747150091990644 -11.836368833239144 -15.660088154283265 0 0 0
144 2 3 0.083 -4.504305220847371 -0.019663459913758174 -7.2145920372978445 0 0 0
4211 42 3 0.082 -15.417452714482796 -9.242906909553223 -19.354892396757926 0 0 1
4210 42 2 -0.023 -15.902270170880564 -10.235687365793043 -19.156516317349578 0 0 1
4207 42 2 -0.023 -16.331962606952494 -10.225696352115525 -17.694763593755557 0 0 1
4215 42 3 0.082 -15.017459008436171 -10.523828743877198 -21.520660526756405 0 0 1
4209 42 3 0.082 -15.509212342513003 -10.671781956531131 -17.080999620148752 0 0 1
652 7 3 0.083 -12.000249972930444 -6.124991666344663 -0.21732889353876317 0 0 0
5116 51 2 -0.023 -19.317666678721523 -0.7855223660980108 -10.411078439336489 1 0 0
4979 50 1 -0.283 -0.611105060516568 -20.08218131403831 -18.27362927465043 0 0 0
70 1 3 0.082 -15.692668219813031 -16.24407321974597 -15.148846660825171 0 0 0
364 4 3 0.083 -20.260019369908953 -10.56628885541368 -16.017018286405825 0 0 0
4772 48 3 0.082 -15.791661896068259 -11.794919209050098 -13.673024617307899 0 0 1
4773 48 3 0.082 -16.364692542851593 -11.570354392482212 -15.293562189905963 0 0 1
914 10 3 0.093 -18.256994537010986 -12.916581001234393 -21.9241447126756 0 0 0
2895 29 3 0.082 -0.20488880989020686 -1.7513708345461794 -6.952148835836542 0 0 0
911 10 6 -0.328 -16.714237634226407 -13.392615364366836 -20.656846445904414 0 0 0
566 6 3 0.083 -15.985304809363818 -7.986764506302588 -22.94656370567022 0 0 0
367 4 3 0.082 -22.911554413075038 -10.68381914221514 -16.43578148089634 0 0 0
10446 216 8 -0.82 -23.00034681963461 -16.615934515957115 -4.164873179763422 1 1 -1
2859 29 2 -0.023 -8.821353448727521 -1.6123011870691961 -1.332909829531392 0 0 0
4811 48 3 0.082 -13.874249109857201 -15.319213883263634 -19.89724055741646 0 0 1
4809 48 2 -0.023 -13.094039551557463 -14.566517435102263 -19.62808559392738 0 0 1
4810 48 3 0.082 -13.011072285458512 -13.65094552926144 -20.27253567594039 0 0 1
10277 159 9 0.41 -9.958874402701056 -13.70801149540492 -19.36334699273805 1 0 1
4204 42 3 0.082 -15.506786356921648 -8.11935574124569 -15.780850715940117 0 0 1
71 1 3 0.082 -14.974881327080313 -14.864156779782798 -16.050516942442716 0 0 0
10276 159 9 0.41 -8.54643222518152 -13.947955038688232 -18.5876504128914 1 0 1
4203 42 2 -0.023 -15.572658761733795 -8.081526607949005 -16.894709340080027 0 0 1
4808 48 3 0.083 -13.37126191274648 -14.955840696691984 -17.493520905321077 0 0 1
1830 19 3 0.08400000000000001 -10.356851746196813 -13.52020010006211 -22.328260870715336 0 0 1
4807 48 3 0.083 -14.528010789449114 -13.7102237319734 -18.160683661734893 0 0 1
4804 48 3 0.083 -13.762893530764043 -12.741291418866961 -15.950032900883727 0 0 1
4803 48 3 0.083 -12.238218541614401 -11.76217941883664 -15.995186979232257 0 0 1
4806 48 2 -0.023 -13.465589820588503 -14.099228906457906 -18.199847970595815 0 0 1
4213 42 1 -0.283 -14.903734463383966 -11.240332865275416 -19.528045736984673 0 0 1
4216 42 3 0.082 -13.822758412774679 -11.854302817271098 -21.240576911513312 0 0 1
4214 42 2 -0.023 -14.269403170525374 -10.92199003858807 -20.77916585881617 0 0 1
4805 48 1 -0.285 -12.697784469177295 -12.990692282029231 -17.72825321274938 0 0 1
4219 42 3 0.082 -13.157020595033664 -9.455213272947951 -19.56602742691712 0 0 1
4217 42 2 -0.023 -13.126341271839049 -9.884714104969726 -20.599021395081557 0 0 1
4218 42 3 0.082 -12.090913773071826 -10.211968789278068 -20.84613757452689 0 0 1
10275 159 8 -0.82 -9.13425866895948 -13.225547270834923 -19.00853452730514 1 0 1
10496 232 9 0.41 -11.52372069178424 -11.636445415562138 -18.22935720171202 0 0 0
10449 217 8 -0.82 -10.107985641128822 -9.256930408435924 -16.16134660656988 1 0 0
10450 217 9 0.41 -10.492778562439955 -9.629851252569383 -17.036056331118427 1 0 0
10494 232 8 -0.82 -10.738169416419321 -11.034559045966644 -18.37824261244787 0 0 0
10495 232 9 0.41 -9.933416950050177 -11.549611924252186 -18.732421292976024 0 0 0
4802 48 2 -0.023 -12.723325409698433 -12.70680945460861 -16.359975178438003 0 0 1
4205 42 3 0.082 -14.673483511036405 -8.61823685720903 -17.28888765972483 0 0 1
1814 18 5 -0.019 -12.654631213728175 -18.84240928141066 -0.8906010307980878 0 0 0
4194 42 3 0.083 -11.832723762191675 -7.536901972506044 -16.933527117481454 0 0 1
2792 28 1 -0.284 -22.498532706487026 -22.437291865555004 -12.365961729153822 0 1 0
3422 34 3 0.082 -20.345855532740334 -1.5307443422836222 -7.6271612084837255 0 0 0
5135 51 3 0.083 -21.380711006577954 -0.03669768209819324 -17.879108586020966 1 0 0
4195 42 3 0.083 -12.349435285170815 -7.469188893346072 -18.700840771680703 0 0 1
4201 42 3 0.083 -16.613682964040947 -6.665296151025384 -18.126521681772104 0 0 1
1841 19 1 -0.283 -8.108350778191062 -8.581815454521985 -21.688522548932866 0 0 1
1837 19 3 0.083 -8.792412617846791 -11.518181621896193 -21.217663122308828 0 0 1
7522 75 2 -0.023 -3.730901128526529 -0.4701716095846109 -12.611531780927736 0 0 0
4958 50 1 -0.295 -0.4307469428129238 -13.449420903168901 -11.38161793917536 0 0 0
1642 17 3 0.082 -1.424073312570819 -13.33541550087363 -16.45743227294662 0 0 1
1654 17 2 -0.023 -5.822829565960003 -16.118371851396432 -22.17993195005117 0 0 1
1808 18 3 0.08400000000000001 -12.030420157792317 -14.71286393305782 -0.4929539642389926 0 0 0
10451 217 9 0.41 -9.112969360553096 -9.26500950206731 -16.300940491905312 1 0 0
7487 75 2 -0.023 -6.105042672283869 -14.444762005357953 -16.793200996448697 0 0 0
7489 75 3 0.082 -5.295968936270462 -14.705845247710393 -16.05436430401955 0 0 0
7488 75 3 0.082 -5.784005524458422 -13.631311308338551 -17.497529692039166 0 0 0
7492 75 3 0.083 -8.724279543052427 -12.546031321449602 -16.232264423912596 0 0 0
1651 17 3 0.082 -4.891689024958058 -13.751105273818085 -21.46572124935477 0 0 1
1628 17 3 0.08400000000000001 -1.2880536394143647 -10.654531271858012 -16.068446969722785 0 0 1
1649 17 3 0.082 -2.5573792692315536 -13.599046283133527 -20.99807688402867 0 0 1
3636 36 4 0.211 -4.8269330339884995 -11.87035459904531 -19.2968741325274 0 0 1
3635 36 7 -0.328 -5.5405677475260156 -11.341104867684257 -19.811347889990046 0 0 1
1650 17 2 -0.023 -4.488819693031463 -14.638338017991108 -20.906385727895646 0 0 1
1647 17 2 -0.023 -3.0881689289373746 -14.305172032706954 -20.319199453809382 0 0 1
1644 17 3 0.082 -1.3564553468035996 -13.714444611669265 -18.556998398078346 0 0 1
1646 17 1 -0.283 -3.383183437779117 -13.668456135523115 -19.038751277049485 0 0 1
1643 17 2 -0.023 -2.2588165989730484 -13.092940552007063 -18.32202798582741 0 0 1
1640 17 2 -0.023 -2.4856494395723914 -13.210010834642693 -16.807653416703808 0 0 1
1645 17 3 0.082 -2.1222803140944393 -12.011602710780984 -18.570477123957975 0 0 1
1641 17 3 0.082 -3.2131868126624354 -14.049844789461366 -16.67079092569349 0 0 1
1639 17 1 -0.283 -3.269784804852268 -12.105276688973929 -16.17888676552927 0 0 1
3634 36 3 0.093 -6.444920880914651 -9.439789537699538 -19.586927682588847 0 0 1
3632 36 5 -0.019 -5.41895969647603 -9.888530811864086 -19.734484813626956 0 0 1
3629 36 2 -0.063 -4.372195329041869 -9.607876435546945 -18.641231369040156 0 0 1
3633 36 3 0.093 -4.987710156515362 -9.379215670395066 -20.63340980797901 0 0 1
1653 17 1 -0.284 -4.5034890076639265 -15.815499931263968 -21.771904815817834 0 0 1
1648 17 3 0.082 -2.5272372897077666 -15.281269527391009 -20.281574646095883 0 0 1
3630 36 3 0.079 -4.628698714648738 -10.152847905367727 -17.70182231784734 0 0 1
3628 36 1 -0.295 -4.400765080847943 -8.27458693973306 -18.215561398004358 0 0 1
1710 17 2 -0.063 -1.8831252300530643 -10.529700797952222 -22.03086350010585 0 0 1
1709 17 1 -0.295 -2.2977890968885255 -9.224607016041194 -22.560188756121345 0 0 1
10166 122 9 0.41 -22.90493732312377 -15.869872358370783 -1.3623414433399752 0 0 0
1626 17 2 -0.021 -0.7760300297610527 -9.700590338393905 -15.723422959072382 0 0 1
3631 36 3 0.079 -3.3090260747862175 -9.806571854859738 -18.9000750515617 0 0 1
2807 28 2 -0.023 -22.896415137818153 -14.98843964294107 -10.261388209991376 0 1 0
1625 17 1 -0.295 -0.5484771145593292 -8.777898096978412 -16.845287524385633 0 0 1
3626 36 3 0.08400000000000001 -2.406744902845407 -7.80342320758208 -17.935295767961094 0 0 1
4123 41 2 -0.023 -22.685354781442044 -7.470821172558891 -19.880111361519525 0 0 1
7490 75 1 -0.283 -7.228747246968716 -14.032353697709643 -16.055900711769432 0 0 0
5340 53 3 0.082 -23.032925633352225 -19.34943974891817 -1.6450293605537532 1 0 0
1655 17 3 0.082 -6.4798144880441235 -15.198343271122559 -22.11473987021262 0 0 1
1852 19 2 -0.023 -5.426448391282822 -4.508296354682226 -22.76795831192566 0 0 1
10339 180 9 0.41 -21.026797199667584 -13.013864306874027 -22.662188080109757 1 -2 0
1716 17 7 -0.328 -0.21580200785993497 -11.69041003617722 -20.937375241887132 0 0 1
604 6 3 0.093 -15.883567006752273 -18.28440255204409 -22.724181113953133 0 0 0
1713 17 5 -0.019 -0.8493019150928625 -10.445980968240098 -20.930951774679894 0 0 1
1867 19 3 0.083 -0.7592829588184173 -7.18390930857052 -21.452155112658772 0 0 1
1711 17 3 0.079 -1.3785290228113425 -11.118817176012133 -22.84782581497164 0 0 1
2884 29 3 0.083 -1.6964209360866036 -1.8538364341163387 -0.6738560181640416 0 0 0
2424 24 4 0.211 -4.730963242171544 -0.819056473681858 -5.366538837583963 0 0 0
360 4 3 0.083 -20.527699687293044 -7.272548398534582 -17.58136494175154 0 0 0
355 4 2 -0.023 -20.443179808900123 -6.819942922223724 -15.55619313791837 0 0 0
357 4 3 0.083 -20.87033408530385 -7.273045839682585 -14.627291014052496 0 0 0
569 6 3 0.082 -18.774303498379805 -7.079027419329298 -22.186851587434425 0 0 0
356 4 3 0.083 -21.163083135341495 -6.044440574795104 -15.939239793627145 0 0 0
5344 53 3 0.08400000000000001 -22.115842433249167 -21.53550155773274 -2.1701024446684656 1 0 0
4120 41 2 -0.023 -22.24920452273209 -5.974946329211324 -19.67949027370038 0 0 1
4065 41 3 0.082 -17.12655657000833 -0.47221806482015083 -22.29520650990158 0 0 1
4116 41 2 -0.023 -20.119199603772593 -4.7177399838220815 -19.594653284406352 0 0 1
4113 41 2 -0.023 -18.647193056500388 -4.945949305125495 -19.867900931750572 0 0 1
4115 41 3 0.082 -18.352126739027156 -4.748823115795254 -20.944217011522785 0 0 1
4118 41 3 0.082 -20.204004568356936 -4.249474694901796 -18.554486825854042 0 0 1
4117 41 3 0.082 -20.596299670881407 -3.9586144514959933 -20.306228052214742 0 0 1
4114 41 3 0.082 -18.478005720679604 -6.036817310787185 -19.687411550047226 0 0 1
4112 41 1 -0.283 -17.83570476921751 -4.321306191618277 -18.885036302883755 0 0 1
4111 41 3 0.082 -16.935113644177264 -3.4009977127133517 -20.425886388337265 0 0 1
4107 41 3 0.082 -16.111615473003475 -2.226029730432554 -18.167652420448483 0 0 1
4109 41 2 -0.023 -16.58663333414829 -3.978589043023142 -19.52673154492052 0 0 1
4110 41 3 0.082 -16.053707712481874 -4.891373223306612 -19.898323994740224 0 0 1
4106 41 2 -0.023 -15.713093559212151 -3.1933406118138628 -18.559238053382416 0 0 1
4119 41 1 -0.283 -20.806094471207025 -5.9639009514275365 -19.910398691290055 0 0 1
5133 51 2 -0.023 -21.01058393902194 -1.0712050892550948 -18.046355937053985 1 0 0
352 4 3 0.083 -18.741462136708567 -4.807281158938444 -16.700594339702846 0 0 0
563 6 1 -0.285 -16.358768840526054 -6.13339079732382 -22.139066150245167 0 0 0
5130 51 2 -0.023 -20.79840930100367 -1.8906521906108722 -16.783718659793813 1 0 0
4108 41 3 0.082 -15.482563355165421 -3.859299751552456 -17.69725457326539 0 0 1
5137 51 2 -0.023 -22.42422094599877 -0.6327809304626903 -19.910731034338866 1 0 0
5138 51 3 0.082 -21.579579769785457 -0.06822649746642284 -20.397820685584943 1 0 0
3419 34 1 -0.283 -19.516495910239623 -0.17223226011947546 -6.341018633303737 0 0 0
5132 51 3 0.082 -19.905584409188616 -2.5533756286708993 -16.93487526351513 1 0 0
4092 41 2 -0.023 -15.300587750755904 -0.06595011830999553 -16.468628199609846 0 0 1
354 4 1 -0.276 -19.091409185138787 -6.384135867666391 -15.381016798258578 0 0 0
351 4 2 -0.023 -18.889366793416002 -4.96999366527896 -15.570247568055619 0 0 0
353 4 3 0.083 -19.78833405292214 -4.407359848125662 -15.209714496613703 0 0 0
2887 29 2 -0.023 -0.9716845502689573 -2.168587811065816 -3.2698877683326906 0 0 0
983 10 3 0.082 -21.200523215560274 -3.9270493481626367 -22.559799677346806 0 0 0
5134 51 3 0.083 -20.150185885388566 -0.932300408682778 -18.733261748681237 1 0 0
350 4 3 0.083 -16.96934322285997 -5.58475203087897 -14.93256918557985 0 0 0
10456 219 9 0.41 -22.296784733434198 -3.351467972406457 -4.659818552281173 1 0 0
4736 47 2 -0.021 -1.9032347515799195 -5.156266456657587 -0.6424873994094789 0 0 0
3038 31 3 0.079 -0.3956893180222387 -6.215632601531052 -6.220272970327464 0 0 0
4190 42 3 0.083 -10.497259655935098 -6.021442472533739 -16.099193816622943 0 0 1
4193 42 2 -0.023 -12.038398061642214 -6.880886749952396 -17.814361056532952 0 0 1
4191 42 3 0.083 -9.04274219235572 -6.418335364635258 -17.05238692161484 0 0 1
4189 42 2 -0.023 -10.006836798407473 -5.8201215175656635 -17.091362870448485 0 0 1
4062 41 3 0.082 -15.113873730548875 -0.9553603881827044 -21.179804134181964 0 0 1
3199 32 3 0.082 -10.05033029548194 -22.47614215019167 -5.382733628043148 0 1 0
4060 41 2 -0.023 -14.394913453164603 -0.4003964728595406 -21.850207798076326 0 0 1
4105 41 1 -0.284 -14.413383309802104 -2.9364977392785114 -19.092633789064564 0 0 1
4103 41 3 0.082 -13.655936818063774 -2.739906314802365 -17.155592889613906 0 0 1
4202 42 3 0.083 -15.793080553176829 -5.9661137581011445 -16.75696400228712 0 0 1
4044 41 3 0.093 -7.743744446506936 -3.3605531749929796 -22.688396594288626 0 0 1
2105 21 3 0.083 -8.189189802361025 -0.350501441151323 -16.842040391820657 0 0 0
4056 41 1 -0.283 -13.546058693483776 -2.6592704661507476 -21.865659584424595 0 0 1
4200 42 2 -0.023 -15.650800530293086 -6.7222985272137095 -17.560735421306042 0 0 1
1844 19 3 0.082 -8.953648850035867 -6.819139557282007 -21.751670786768177 0 0 1
4962 50 2 -0.023 -0.6890914978753564 -14.837674440339304 -13.381662047042662 0 0 0
4052 41 3 0.08400000000000001 -10.877537042411614 -4.697282279383693 -21.655629772288222 0 0 1
4102 41 2 -0.023 -13.38304688037934 -2.4951869325114977 -18.23071936833895 0 0 1
4199 42 1 -0.285 -14.415560177295795 -6.337878721240621 -18.211600891160323 0 0 1
4053 41 2 -0.023 -12.677693119578306 -3.707331612999088 -22.291196116706313 0 0 1
4197 42 3 0.083 -13.041014087188191 -5.043723581809797 -17.270240561998367 0 0 1
4196 42 2 -0.023 -13.27944145073015 -6.128677790141925 -17.292096346389922 0 0 1
4043 41 5 -0.019 -7.994265981978314 -2.3005464145695242 -22.428348835447323 0 0 1
4051 41 3 0.08400000000000001 -11.45716929853281 -3.286322420916658 -20.584107309732936 0 0 1