LAMMPS data file via write_data, version 2 Aug 2023, timestep = 10000, units = real

27 atoms
2 atom types
29 bonds
7 bond types
60 angles
16 angle types
103 dihedrals
5 dihedral types
4 impropers
2 improper types

-25 25 xlo xhi
-25 25 ylo yhi
-25 25 zlo zhi

Masses

1 12.011
2 1.008

Pair Coeffs # lj/cut/coul/long

1 0.0663016 3.58118
2 0.0282937 2.37341

Bond Coeffs # harmonic

1 349.274 1.09
2 450.108 1.5
3 299.844 1.52
4 179.254 1.56
5 227.055 1.54
6 143.403 1.57
7 114.723 1.35

Angle Coeffs # harmonic

1 50.1709 108
2 55.1272 109.5
3 47.635 109.6
4 55.1139 111
5 55.0997 113
6 45.1871 120
7 50.1166 120
8 49.998 126
9 52.4767 107.57
10 65.472 111.3
11 55.0247 106.75
12 47.5019 108.53
13 47.4817 109.5
14 54.9931 110.3
15 192.229 106
16 239.306 101

Dihedral Coeffs # harmonic

1 9.99044 -1 2
2 1.41491 1 3
3 0.239006 -1 6
4 0.239006 -1 3
5 0 1 1

Improper Coeffs # harmonic

1 20.0075 0
2 40.0151 35.2644

Atoms # full

17 1 1 -0.257 -1.8566580550503777 -1.4391405281687732 -0.18376713658370555 0 0 0
18 1 2 0.08799999999999999 -2.127200582627033 -1.5945881322574493 -1.224413472283701 0 0 0
20 1 1 0.067 -0.46255656542077733 -0.9869099203285926 -0.1799711575128476 0 0 0
24 1 2 0.028 0.06228807894218194 -0.49967234744228667 -2.286596900643087 0 0 0
23 1 1 -0.073 0.2075933025683122 -0.12208107722293784 -1.2286161187792086 0 0 0
26 1 2 0.025 2.037598473068852 -0.2902249043827167 -2.2878144645792573 0 0 0
25 1 1 -0 1.622464941698844 0.13161717509725232 -1.4282774592120953 0 0 0
9 1 1 0.279 -0.20377013241350594 1.2934883626274096 -0.5075852310170658 0 0 0
12 1 2 0.049 -2.218417716675804 1.9483798680412172 -0.7691003624983872 0 0 0
11 1 1 -0.228 -1.7353332450653305 1.3132887401279545 -0.0784051095231441 0 0 0
10 1 2 -0.031 -0.08297001287677579 1.9505108094868746 -1.2354408577071276 0 0 0
27 1 2 0.017 1.6036548038265692 1.2513552368582024 -1.7123248459072633 0 0 0
19 1 2 0.076 -2.3415794810604993 -2.1912891269047496 0.28678960373516493 0 0 0
3 1 2 0.056 2.496408140360957 -1.5398413695285966 -0.07898459751538953 0 0 0
2 1 1 -0.224 2.3645146389676563 -0.5394933942072114 0.011417713946550612 0 0 0
22 1 2 0.16 -0.45961735551993826 -1.2792083955171727 1.9233119065793307 0 0 0
21 1 1 -0.418 0.2300239813820305 -1.1198629243226634 1.044515645937319 0 0 0
5 1 2 -0.03 1.7358351505651972 -0.11228309001919731 2.102102207016949 0 0 0
4 1 1 0.325 1.424436407085264 -0.1166277403642523 1.2479508114538733 0 0 0
15 1 2 -0.02 -3.3656386663468343 0.13988276367449595 0.27030024845438577 0 0 0
16 1 2 -0.001 -1.9343523387571495 -0.3517471999600123 1.5241405483798085 0 0 0
14 1 1 0.173 -2.4653126675790458 -0.05176335381741752 0.4716848738843093 0 0 0
13 1 2 0.034 -1.9338195079697875 1.997241638971473 0.8622614625065608 0 0 0
1 1 2 0.057 3.2513747148519734 0.04291934691042942 0.11838288578355678 0 0 0
7 1 2 0.06900000000000001 0.5920355387162965 1.9731959951586582 1.7399843198944394 0 0 0
6 1 1 -0.268 0.8914657984743959 1.3462105517651073 0.8537515099988603 0 0 0
8 1 2 0.047 1.7282716251998238 2.0550405508993066 0.44966437981719837 0 0 0

Velocities

17 0.02654361815551371 -0.014314581447193612 -0.0008689393985230729
18 0.065109198178241 0.030112145461786474 0.03669288620160052
20 0.004643964268430607 -0.0051561479264266765 -0.0012887280494141692
24 -0.06265964917496161 0.051470908688268195 0.0037461613079682694
23 0.013972255634293789 0.012243279734779188 0.008154686257172371
26 -0.032508549756794076 -0.01866355458444687 0.032305754274302795
25 -0.005929720002853757 0.0035452657245144664 0.010869570464858255
9 -0.0046962857441847 -0.012499660793234732 0.004850297049622323
12 0.013046761516004814 -0.004540242421061807 0.05833379387292566
11 0.007192404416426981 -0.00034388000624649564 0.0006693292879665702
10 -0.034674608376642914 0.008609809619039739 -0.012573299023563831
27 0.058177075593120735 -0.06056400852212508 -0.04943195591620483
19 -0.04116784121456575 -0.0036813923846653633 -0.008380149298094362
3 0.05111125046281501 -0.05999144761118594 0.050252698174432946
2 -0.011189807222834197 0.017969079148386573 -0.0015859922226634082
22 0.023832442906491797 -0.01256831909541748 0.012189404168196511
21 -0.005217345716286091 0.02395317425821674 0.016091189920692247
5 0.011617165105530172 -0.06790631825649841 -0.011319861746402062
4 -0.004462163598019295 -0.017666576170730253 -0.03020482631372563
15 -0.020969556580469693 0.022350318681437692 0.03692614851566006
16 0.005409055589085572 0.014373660249085703 -0.01297951750915612
14 -0.013696043309769604 0.01966154672004264 -0.007499577704091488
13 -1.6032657738742423e-05 -0.01756006858873182 0.002774618035993879
1 0.019309839826485032 -0.00021409487701653073 0.024218878368591854
7 0.030086755947297095 -0.011721281789667672 0.04855212631593834
6 -0.016401350055526332 -0.012618813519977706 -0.017477359854934857
8 0.024403164166488068 -0.0455326306486668 0.006634179944996624

Bonds

1 1 17 18
2 1 17 19
3 2 17 20
4 7 20 21
5 3 20 23
6 1 23 24
7 5 23 25
8 1 25 26
9 1 25 27
10 1 9 10
11 4 9 11
12 4 9 23
13 1 11 12
14 1 11 13
15 4 11 14
16 1 2 3
17 5 2 4
18 4 2 25
19 1 21 22
20 1 4 5
21 6 4 6
22 3 4 21
23 1 14 15
24 1 14 16
25 4 14 17
26 1 1 2
27 1 6 7
28 1 6 8
29 6 6 9

Angles

1 4 14 17 18
2 13 14 17 19
3 16 14 17 20
4 1 18 17 19
5 5 18 17 20
6 5 19 17 20
7 8 17 20 21
8 4 17 20 23
9 4 21 20 23
10 16 9 23 20
11 3 9 23 24
12 4 9 23 25
13 10 20 23 24
14 4 20 23 25
15 14 24 23 25
16 2 2 25 23
17 14 2 25 26
18 4 2 25 27
19 13 23 25 26
20 13 23 25 27
21 11 26 25 27
22 12 6 9 10
23 7 6 9 11
24 2 6 9 23
25 9 10 9 11
26 3 10 9 23
27 2 11 9 23
28 11 9 11 12
29 14 9 11 13
30 7 9 11 14
31 11 12 11 13
32 12 12 11 14
33 12 13 11 14
34 11 1 2 3
35 13 1 2 4
36 4 1 2 25
37 3 3 2 4
38 4 3 2 25
39 2 4 2 25
40 4 4 21 20
41 6 4 21 22
42 6 20 21 22
43 14 2 4 5
44 2 2 4 6
45 4 2 4 21
46 14 5 4 6
47 5 5 4 21
48 15 6 4 21
49 12 11 14 15
50 13 11 14 16
51 4 11 14 17
52 11 15 14 16
53 14 15 14 17
54 11 16 14 17
55 13 4 6 7
56 3 4 6 8
57 2 4 6 9
58 11 7 6 8
59 4 7 6 9
60 14 8 6 9

Dihedrals

1 5 14 17 20 21
2 3 14 17 20 23
3 5 18 17 20 21
4 5 18 17 20 23
5 5 19 17 20 21
6 5 19 17 20 23
7 5 17 20 21 22
8 5 17 20 23 24
9 5 17 20 23 25
10 5 21 20 23 24
11 5 21 20 23 25
12 5 9 23 25 26
13 5 9 23 25 27
14 5 9 23 20 17
15 5 20 23 25 26
16 5 20 23 25 27
17 3 9 23 20 21
18 5 24 23 25 26
19 5 24 23 25 27
20 2 2 25 23 9
21 5 2 25 23 20
22 5 2 25 23 24
23 5 6 9 11 12
24 5 6 9 11 13
25 2 6 9 11 14
26 5 6 9 23 20
27 5 6 9 23 24
28 5 6 9 23 25
29 5 10 9 11 12
30 5 10 9 11 13
31 5 10 9 11 14
32 5 10 9 23 20
33 5 10 9 23 24
34 5 10 9 23 25
35 5 11 9 23 20
36 5 11 9 23 24
37 2 11 9 23 25
38 5 9 11 14 15
39 5 9 11 14 16
40 2 9 11 14 17
41 5 12 11 14 15
42 5 12 11 14 16
43 5 12 11 14 17
44 5 13 11 14 15
45 5 13 11 14 16
46 5 13 11 14 17
47 5 12 11 9 23
48 5 13 11 9 23
49 5 14 11 9 23
50 5 1 2 4 5
51 5 1 2 4 6
52 5 1 2 4 21
53 5 1 2 25 23
54 5 1 2 25 26
55 5 1 2 25 27
56 5 3 2 4 5
57 5 3 2 4 6
58 5 3 2 4 21
59 5 3 2 25 23
60 5 3 2 25 26
61 5 3 2 25 27
62 4 4 2 25 23
63 5 4 2 25 26
64 5 4 2 25 27
65 5 4 21 20 17
66 1 4 21 20 23
67 5 22 21 20 23
68 5 2 4 6 7
69 5 2 4 6 8
70 2 2 4 6 9
71 5 2 4 21 20
72 5 2 4 21 22
73 5 5 4 6 7
74 5 5 4 6 8
75 5 5 4 6 9
76 5 5 4 21 20
77 5 5 4 21 22
78 3 6 4 21 20
79 5 6 4 21 22
80 5 5 4 2 25
81 2 6 4 2 25
82 5 21 4 2 25
83 5 11 14 17 18
84 5 11 14 17 19
85 2 11 14 17 20
86 5 15 14 17 18
87 5 15 14 17 19
88 5 15 14 17 20
89 5 16 14 17 18
90 5 16 14 17 19
91 5 16 14 17 20
92 5 4 6 9 10
93 4 4 6 9 11
94 5 4 6 9 23
95 5 7 6 9 10
96 5 7 6 9 11
97 5 7 6 9 23
98 5 8 6 9 10
99 5 8 6 9 11
100 5 8 6 9 23
101 5 7 6 4 21
102 5 8 6 4 21
103 5 9 6 4 21

Impropers

1 2 23 9 25 20
2 2 4 2 6 21
3 1 21 4 20 22
4 2 9 6 11 23
