# LAMMPS data file 
# Created using atb2lammps 
# https://github.com/simongravelle/atb2lammps

960 atoms
2555 bonds
2634 angles
5104 dihedrals
878 impropers

2 atom types
4 bond types
2 angle types
2 dihedral types
1 improper types

-50 50 xlo xhi
-50 50 ylo yhi
-50 50 zlo zhi

Atoms

1 1 1 0.0 64.054 60.721 1.951 
2 1 2 0.0 63.437 60.364 1.951 
3 1 2 0.0 63.437 58.941 1.951 
4 1 1 0.0 64.054 58.584 1.951 
5 1 2 0.0 62.203 58.228 1.951 
6 1 2 0.0 62.203 56.803 1.951 
7 1 2 0.0 63.437 56.092 1.951 
8 1 1 0.0 64.054 56.447 1.951 
9 1 2 0.0 63.437 54.667 1.951 
10 1 1 0.0 64.054 54.312 1.951 
11 1 2 0.0 62.203 53.956 1.951 
12 1 2 0.0 62.203 52.531 1.951 
13 1 2 0.0 63.437 51.819 1.951 
14 1 1 0.0 64.054 52.175 1.951 
15 1 2 0.0 63.437 50.395 1.951 
16 1 1 0.0 64.054 50.038 1.951 
17 1 2 0.0 62.203 49.682 1.951 
18 1 2 0.0 62.203 48.258 1.951 
19 1 2 0.0 63.437 47.545 1.951 
20 1 1 0.0 64.054 47.901 1.951 
21 1 2 0.0 63.437 46.121 1.951 
22 1 1 0.0 64.054 45.766 1.951 
23 1 2 0.0 62.203 45.41 1.951 
24 1 2 0.0 62.203 43.984 1.951 
25 1 2 0.0 63.437 43.273 1.951 
26 1 1 0.0 64.054 43.629 1.951 
27 1 2 0.0 63.437 41.849 1.951 
28 1 1 0.0 64.054 41.492 1.951 
29 1 2 0.0 62.203 41.136 1.951 
30 1 2 0.0 62.203 39.712 1.951 
31 1 2 0.0 63.437 38.999 1.951 
32 1 1 0.0 64.054 39.355 1.951 
33 1 2 0.0 63.437 37.575 1.951 
34 1 1 0.0 64.054 37.219 1.951 
35 1 2 0.0 62.203 36.864 1.951 
36 1 2 0.0 62.203 35.438 1.951 
37 1 2 0.0 63.437 34.727 1.951 
38 1 1 0.0 64.054 35.083 1.951 
39 1 2 0.0 63.437 33.303 1.951 
40 1 1 0.0 64.054 32.947 1.951 
41 1 2 0.0 62.203 32.59 1.951 
42 1 2 0.0 62.203 31.166 1.951 
43 1 2 0.0 63.437 30.453 1.951 
44 1 1 0.0 64.054 30.809 1.951 
45 1 2 0.0 63.437 29.029 1.951 
46 1 1 0.0 64.054 28.674 1.951 
47 1 2 0.0 62.203 28.317 1.951 
48 1 2 0.0 62.203 26.892 1.951 
49 1 2 0.0 63.437 26.18 1.951 
50 1 1 0.0 64.054 26.537 1.951 
51 1 2 0.0 63.437 24.756 1.951 
52 1 1 0.0 64.054 24.401 1.951 
53 1 2 0.0 62.203 24.044 1.951 
54 1 2 0.0 62.203 22.619 1.951 
55 1 2 0.0 63.437 21.907 1.951 
56 1 1 0.0 64.054 22.264 1.951 
57 1 2 0.0 63.437 20.483 1.951 
58 1 1 0.0 64.054 20.128 1.951 
59 1 2 0.0 62.203 19.771 1.951 
60 1 2 0.0 62.203 18.346 1.951 
61 1 2 0.0 63.437 17.634 1.951 
62 1 1 0.0 64.054 17.991 1.951 
63 1 2 0.0 63.437 16.21 1.951 
64 1 1 0.0 64.054 15.854 1.951 
65 1 2 0.0 62.203 15.498 1.951 
66 1 1 0.0 62.203 14.787 1.951 
67 1 2 0.0 60.97 16.21 1.951 
68 1 2 0.0 59.736 15.498 1.951 
69 1 1 0.0 59.736 14.787 1.951 
70 1 2 0.0 58.503 16.21 1.951 
71 1 2 0.0 57.269 15.498 1.951 
72 1 1 0.0 57.269 14.787 1.951 
73 1 2 0.0 56.036 16.21 1.951 
74 1 2 0.0 54.802 15.498 1.951 
75 1 1 0.0 54.801 14.787 1.951 
76 1 2 0.0 53.569 16.21 1.951 
77 1 2 0.0 52.335 15.498 1.951 
78 1 1 0.0 52.334 14.787 1.951 
79 1 2 0.0 51.102 16.21 1.951 
80 1 2 0.0 49.868 15.498 1.951 
81 1 1 0.0 49.867 14.787 1.951 
82 1 2 0.0 48.635 16.21 1.951 
83 1 2 0.0 47.401 15.498 1.951 
84 1 1 0.0 47.401 14.787 1.951 
85 1 2 0.0 46.168 16.21 1.951 
86 1 2 0.0 44.934 15.498 1.951 
87 1 1 0.0 44.934 14.787 1.951 
88 1 2 0.0 43.701 16.21 1.951 
89 1 2 0.0 42.467 15.498 1.951 
90 1 1 0.0 42.467 14.787 1.951 
91 1 2 0.0 41.234 16.21 1.951 
92 1 2 0.0 40.0 15.498 1.951 
93 1 1 0.0 39.999 14.787 1.951 
94 1 2 0.0 38.767 16.21 1.951 
95 1 2 0.0 37.533 15.498 1.951 
96 1 1 0.0 37.532 14.787 1.951 
97 1 2 0.0 36.3 16.21 1.951 
98 1 2 0.0 35.066 15.498 1.951 
99 1 1 0.0 35.066 14.787 1.951 
100 1 2 0.0 33.833 16.21 1.951 
101 1 2 0.0 32.599 15.498 1.951 
102 1 1 0.0 32.599 14.787 1.951 
103 1 2 0.0 31.366 16.21 1.951 
104 1 2 0.0 30.132 15.498 1.951 
105 1 1 0.0 30.131 14.787 1.951 
106 1 2 0.0 28.899 16.21 1.951 
107 1 2 0.0 27.665 15.498 1.951 
108 1 1 0.0 27.665 14.787 1.951 
109 1 2 0.0 26.432 16.21 1.951 
110 1 2 0.0 25.198 15.498 1.951 
111 1 1 0.0 25.198 14.787 1.951 
112 1 2 0.0 23.965 16.21 1.951 
113 1 2 0.0 22.731 15.498 1.951 
114 1 1 0.0 22.73 14.787 1.951 
115 1 2 0.0 21.498 16.21 1.951 
116 1 2 0.0 20.264 15.498 1.951 
117 1 1 0.0 20.264 14.787 1.951 
118 1 2 0.0 19.031 16.21 1.951 
119 1 2 0.0 17.797 15.498 1.951 
120 1 1 0.0 17.797 14.787 1.951 
121 1 2 0.0 16.564 16.21 1.951 
122 1 1 0.0 15.947 15.854 1.951 
123 1 2 0.0 16.564 17.634 1.951 
124 1 2 0.0 17.797 18.346 1.951 
125 1 2 0.0 19.031 17.634 1.951 
126 1 2 0.0 20.264 18.346 1.951 
127 1 2 0.0 21.498 17.634 1.951 
128 1 2 0.0 22.731 18.346 1.951 
129 1 2 0.0 23.965 17.634 1.951 
130 1 2 0.0 25.198 18.346 1.951 
131 1 2 0.0 26.432 17.634 1.951 
132 1 2 0.0 27.665 18.346 1.951 
133 1 2 0.0 28.899 17.634 1.951 
134 1 2 0.0 30.132 18.346 1.951 
135 1 2 0.0 31.366 17.634 1.951 
136 1 2 0.0 32.599 18.346 1.951 
137 1 2 0.0 33.833 17.634 1.951 
138 1 2 0.0 35.066 18.346 1.951 
139 1 2 0.0 36.3 17.634 1.951 
140 1 2 0.0 37.533 18.346 1.951 
141 1 2 0.0 38.767 17.634 1.951 
142 1 2 0.0 40.0 18.346 1.951 
143 1 2 0.0 41.234 17.634 1.951 
144 1 2 0.0 42.467 18.346 1.951 
145 1 2 0.0 43.701 17.634 1.951 
146 1 2 0.0 44.934 18.346 1.951 
147 1 2 0.0 46.168 17.634 1.951 
148 1 2 0.0 47.401 18.346 1.951 
149 1 2 0.0 48.635 17.634 1.951 
150 1 2 0.0 49.868 18.346 1.951 
151 1 2 0.0 51.102 17.634 1.951 
152 1 2 0.0 52.335 18.346 1.951 
153 1 2 0.0 53.569 17.634 1.951 
154 1 2 0.0 54.802 18.346 1.951 
155 1 2 0.0 56.036 17.634 1.951 
156 1 2 0.0 57.269 18.346 1.951 
157 1 2 0.0 58.503 17.634 1.951 
158 1 2 0.0 59.736 18.346 1.951 
159 1 2 0.0 60.97 17.634 1.951 
160 1 2 0.0 59.736 19.771 1.951 
161 1 2 0.0 58.503 20.483 1.951 
162 1 2 0.0 57.269 19.771 1.951 
163 1 2 0.0 56.036 20.483 1.951 
164 1 2 0.0 54.802 19.771 1.951 
165 1 2 0.0 53.569 20.483 1.951 
166 1 2 0.0 52.335 19.771 1.951 
167 1 2 0.0 51.102 20.483 1.951 
168 1 2 0.0 49.868 19.771 1.951 
169 1 2 0.0 48.635 20.483 1.951 
170 1 2 0.0 47.401 19.771 1.951 
171 1 2 0.0 46.168 20.483 1.951 
172 1 2 0.0 44.934 19.771 1.951 
173 1 2 0.0 43.701 20.483 1.951 
174 1 2 0.0 42.467 19.771 1.951 
175 1 2 0.0 41.234 20.483 1.951 
176 1 2 0.0 40.0 19.771 1.951 
177 1 2 0.0 38.767 20.483 1.951 
178 1 2 0.0 37.533 19.771 1.951 
179 1 2 0.0 36.3 20.483 1.951 
180 1 2 0.0 35.066 19.771 1.951 
181 1 2 0.0 33.833 20.483 1.951 
182 1 2 0.0 32.599 19.771 1.951 
183 1 2 0.0 31.366 20.483 1.951 
184 1 2 0.0 30.132 19.771 1.951 
185 1 2 0.0 28.899 20.483 1.951 
186 1 2 0.0 27.665 19.771 1.951 
187 1 2 0.0 26.432 20.483 1.951 
188 1 2 0.0 25.198 19.771 1.951 
189 1 2 0.0 23.965 20.483 1.951 
190 1 2 0.0 22.731 19.771 1.951 
191 1 2 0.0 21.498 20.483 1.951 
192 1 2 0.0 20.264 19.771 1.951 
193 1 2 0.0 19.031 20.483 1.951 
194 1 2 0.0 17.797 19.771 1.951 
195 1 2 0.0 16.564 20.483 1.951 
196 1 2 0.0 15.33 19.771 1.951 
197 1 1 0.0 14.713 20.128 1.951 
198 1 2 0.0 15.33 18.346 1.951 
199 1 1 0.0 14.713 17.99 1.951 
200 1 2 0.0 16.564 21.907 1.951 
201 1 2 0.0 17.797 22.619 1.951 
202 1 2 0.0 19.031 21.907 1.951 
203 1 2 0.0 20.264 22.619 1.951 
204 1 2 0.0 21.498 21.907 1.951 
205 1 2 0.0 22.731 22.619 1.951 
206 1 2 0.0 23.965 21.907 1.951 
207 1 2 0.0 25.198 22.619 1.951 
208 1 2 0.0 26.432 21.907 1.951 
209 1 2 0.0 27.665 22.619 1.951 
210 1 2 0.0 28.899 21.907 1.951 
211 1 2 0.0 30.132 22.619 1.951 
212 1 2 0.0 31.366 21.907 1.951 
213 1 2 0.0 32.599 22.619 1.951 
214 1 2 0.0 33.833 21.907 1.951 
215 1 2 0.0 35.066 22.619 1.951 
216 1 2 0.0 36.3 21.907 1.951 
217 1 2 0.0 37.533 22.619 1.951 
218 1 2 0.0 38.767 21.907 1.951 
219 1 2 0.0 40.0 22.619 1.951 
220 1 2 0.0 41.234 21.907 1.951 
221 1 2 0.0 42.467 22.619 1.951 
222 1 2 0.0 43.701 21.907 1.951 
223 1 2 0.0 44.934 22.619 1.951 
224 1 2 0.0 46.168 21.907 1.951 
225 1 2 0.0 47.401 22.619 1.951 
226 1 2 0.0 48.635 21.907 1.951 
227 1 2 0.0 49.868 22.619 1.951 
228 1 2 0.0 51.102 21.907 1.951 
229 1 2 0.0 52.335 22.619 1.951 
230 1 2 0.0 53.569 21.907 1.951 
231 1 2 0.0 54.802 22.619 1.951 
232 1 2 0.0 56.036 21.907 1.951 
233 1 2 0.0 57.269 22.619 1.951 
234 1 2 0.0 58.503 21.907 1.951 
235 1 2 0.0 59.736 22.619 1.951 
236 1 2 0.0 60.97 21.907 1.951 
237 1 2 0.0 60.97 20.483 1.951 
238 1 2 0.0 59.736 24.044 1.951 
239 1 2 0.0 58.503 24.756 1.951 
240 1 2 0.0 57.269 24.044 1.951 
241 1 2 0.0 56.036 24.756 1.951 
242 1 2 0.0 54.802 24.044 1.951 
243 1 2 0.0 53.569 24.756 1.951 
244 1 2 0.0 52.335 24.044 1.951 
245 1 2 0.0 51.102 24.756 1.951 
246 1 2 0.0 49.868 24.044 1.951 
247 1 2 0.0 48.635 24.756 1.951 
248 1 2 0.0 47.401 24.044 1.951 
249 1 2 0.0 46.168 24.756 1.951 
250 1 2 0.0 44.934 24.044 1.951 
251 1 2 0.0 43.701 24.756 1.951 
252 1 2 0.0 42.467 24.044 1.951 
253 1 2 0.0 41.234 24.756 1.951 
254 1 2 0.0 40.0 24.044 1.951 
255 1 2 0.0 38.767 24.756 1.951 
256 1 2 0.0 37.533 24.044 1.951 
257 1 2 0.0 36.3 24.756 1.951 
258 1 2 0.0 35.066 24.044 1.951 
259 1 2 0.0 33.833 24.756 1.951 
260 1 2 0.0 32.599 24.044 1.951 
261 1 2 0.0 31.366 24.756 1.951 
262 1 2 0.0 30.132 24.044 1.951 
263 1 2 0.0 28.899 24.756 1.951 
264 1 2 0.0 27.665 24.044 1.951 
265 1 2 0.0 26.432 24.756 1.951 
266 1 2 0.0 25.198 24.044 1.951 
267 1 2 0.0 23.965 24.756 1.951 
268 1 2 0.0 22.731 24.044 1.951 
269 1 2 0.0 21.498 24.756 1.951 
270 1 2 0.0 20.264 24.044 1.951 
271 1 2 0.0 19.031 24.756 1.951 
272 1 2 0.0 17.797 24.044 1.951 
273 1 2 0.0 16.564 24.756 1.951 
274 1 2 0.0 15.33 24.044 1.951 
275 1 1 0.0 14.713 24.401 1.951 
276 1 2 0.0 15.33 22.619 1.951 
277 1 1 0.0 14.713 22.263 1.951 
278 1 2 0.0 16.564 26.18 1.951 
279 1 2 0.0 17.797 26.892 1.951 
280 1 2 0.0 19.031 26.18 1.951 
281 1 2 0.0 20.264 26.892 1.951 
282 1 2 0.0 21.498 26.18 1.951 
283 1 2 0.0 22.731 26.892 1.951 
284 1 2 0.0 23.965 26.18 1.951 
285 1 2 0.0 25.198 26.892 1.951 
286 1 2 0.0 26.432 26.18 1.951 
287 1 2 0.0 27.665 26.892 1.951 
288 1 2 0.0 28.899 26.18 1.951 
289 1 2 0.0 30.132 26.892 1.951 
290 1 2 0.0 31.366 26.18 1.951 
291 1 2 0.0 32.599 26.892 1.951 
292 1 2 0.0 33.833 26.18 1.951 
293 1 2 0.0 35.066 26.892 1.951 
294 1 2 0.0 36.3 26.18 1.951 
295 1 2 0.0 37.533 26.892 1.951 
296 1 2 0.0 38.767 26.18 1.951 
297 1 2 0.0 40.0 26.892 1.951 
298 1 2 0.0 41.234 26.18 1.951 
299 1 2 0.0 42.467 26.892 1.951 
300 1 2 0.0 43.701 26.18 1.951 
301 1 2 0.0 44.934 26.892 1.951 
302 1 2 0.0 46.168 26.18 1.951 
303 1 2 0.0 47.401 26.892 1.951 
304 1 2 0.0 48.635 26.18 1.951 
305 1 2 0.0 49.868 26.892 1.951 
306 1 2 0.0 51.102 26.18 1.951 
307 1 2 0.0 52.335 26.892 1.951 
308 1 2 0.0 53.569 26.18 1.951 
309 1 2 0.0 54.802 26.892 1.951 
310 1 2 0.0 56.036 26.18 1.951 
311 1 2 0.0 57.269 26.892 1.951 
312 1 2 0.0 58.503 26.18 1.951 
313 1 2 0.0 59.736 26.892 1.951 
314 1 2 0.0 60.97 26.18 1.951 
315 1 2 0.0 60.97 24.756 1.951 
316 1 2 0.0 59.736 28.317 1.951 
317 1 2 0.0 58.503 29.029 1.951 
318 1 2 0.0 57.269 28.317 1.951 
319 1 2 0.0 56.036 29.029 1.951 
320 1 2 0.0 54.802 28.317 1.951 
321 1 2 0.0 53.569 29.029 1.951 
322 1 2 0.0 52.335 28.317 1.951 
323 1 2 0.0 51.102 29.029 1.951 
324 1 2 0.0 49.868 28.317 1.951 
325 1 2 0.0 48.635 29.029 1.951 
326 1 2 0.0 47.401 28.317 1.951 
327 1 2 0.0 46.168 29.029 1.951 
328 1 2 0.0 44.934 28.317 1.951 
329 1 2 0.0 43.701 29.029 1.951 
330 1 2 0.0 42.467 28.317 1.951 
331 1 2 0.0 41.234 29.029 1.951 
332 1 2 0.0 40.0 28.317 1.951 
333 1 2 0.0 38.767 29.029 1.951 
334 1 2 0.0 37.533 28.317 1.951 
335 1 2 0.0 36.3 29.029 1.951 
336 1 2 0.0 35.066 28.317 1.951 
337 1 2 0.0 33.833 29.029 1.951 
338 1 2 0.0 32.599 28.317 1.951 
339 1 2 0.0 31.366 29.029 1.951 
340 1 2 0.0 30.132 28.317 1.951 
341 1 2 0.0 28.899 29.029 1.951 
342 1 2 0.0 27.665 28.317 1.951 
343 1 2 0.0 26.432 29.029 1.951 
344 1 2 0.0 25.198 28.317 1.951 
345 1 2 0.0 23.965 29.029 1.951 
346 1 2 0.0 22.731 28.317 1.951 
347 1 2 0.0 21.498 29.029 1.951 
348 1 2 0.0 20.264 28.317 1.951 
349 1 2 0.0 19.031 29.029 1.951 
350 1 2 0.0 17.797 28.317 1.951 
351 1 2 0.0 16.564 29.029 1.951 
352 1 2 0.0 15.33 28.317 1.951 
353 1 1 0.0 14.713 28.674 1.951 
354 1 2 0.0 15.33 26.892 1.951 
355 1 1 0.0 14.713 26.536 1.951 
356 1 2 0.0 16.564 30.453 1.951 
357 1 2 0.0 17.797 31.166 1.951 
358 1 2 0.0 19.031 30.453 1.951 
359 1 2 0.0 20.264 31.166 1.951 
360 1 2 0.0 21.498 30.453 1.951 
361 1 2 0.0 22.731 31.166 1.951 
362 1 2 0.0 23.965 30.453 1.951 
363 1 2 0.0 25.198 31.166 1.951 
364 1 2 0.0 26.432 30.453 1.951 
365 1 2 0.0 27.665 31.166 1.951 
366 1 2 0.0 28.899 30.453 1.951 
367 1 2 0.0 30.132 31.166 1.951 
368 1 2 0.0 31.366 30.453 1.951 
369 1 2 0.0 32.599 31.166 1.951 
370 1 2 0.0 33.833 30.453 1.951 
371 1 2 0.0 35.066 31.166 1.951 
372 1 2 0.0 36.3 30.453 1.951 
373 1 2 0.0 37.533 31.166 1.951 
374 1 2 0.0 38.767 30.453 1.951 
375 1 2 0.0 40.0 31.166 1.951 
376 1 2 0.0 41.234 30.453 1.951 
377 1 2 0.0 42.467 31.166 1.951 
378 1 2 0.0 43.701 30.453 1.951 
379 1 2 0.0 44.934 31.166 1.951 
380 1 2 0.0 46.168 30.453 1.951 
381 1 2 0.0 47.401 31.166 1.951 
382 1 2 0.0 48.635 30.453 1.951 
383 1 2 0.0 49.868 31.166 1.951 
384 1 2 0.0 51.102 30.453 1.951 
385 1 2 0.0 52.335 31.166 1.951 
386 1 2 0.0 53.569 30.453 1.951 
387 1 2 0.0 54.802 31.166 1.951 
388 1 2 0.0 56.036 30.453 1.951 
389 1 2 0.0 57.269 31.166 1.951 
390 1 2 0.0 58.503 30.453 1.951 
391 1 2 0.0 59.736 31.166 1.951 
392 1 2 0.0 60.97 30.453 1.951 
393 1 2 0.0 60.97 29.029 1.951 
394 1 2 0.0 59.736 32.59 1.951 
395 1 2 0.0 58.503 33.303 1.951 
396 1 2 0.0 57.269 32.59 1.951 
397 1 2 0.0 56.036 33.303 1.951 
398 1 2 0.0 54.802 32.59 1.951 
399 1 2 0.0 53.569 33.303 1.951 
400 1 2 0.0 52.335 32.59 1.951 
401 1 2 0.0 51.102 33.303 1.951 
402 1 2 0.0 49.868 32.59 1.951 
403 1 2 0.0 48.635 33.303 1.951 
404 1 2 0.0 47.401 32.59 1.951 
405 1 2 0.0 46.168 33.303 1.951 
406 1 2 0.0 44.934 32.59 1.951 
407 1 2 0.0 43.701 33.303 1.951 
408 1 2 0.0 42.467 32.59 1.951 
409 1 2 0.0 41.234 33.303 1.951 
410 1 2 0.0 40.0 32.59 1.951 
411 1 2 0.0 38.767 33.303 1.951 
412 1 2 0.0 37.533 32.59 1.951 
413 1 2 0.0 36.3 33.303 1.951 
414 1 2 0.0 35.066 32.59 1.951 
415 1 2 0.0 33.833 33.303 1.951 
416 1 2 0.0 32.599 32.59 1.951 
417 1 2 0.0 31.366 33.303 1.951 
418 1 2 0.0 30.132 32.59 1.951 
419 1 2 0.0 28.899 33.303 1.951 
420 1 2 0.0 27.665 32.59 1.951 
421 1 2 0.0 26.432 33.303 1.951 
422 1 2 0.0 25.198 32.59 1.951 
423 1 2 0.0 23.965 33.303 1.951 
424 1 2 0.0 22.731 32.59 1.951 
425 1 2 0.0 21.498 33.303 1.951 
426 1 2 0.0 20.264 32.59 1.951 
427 1 2 0.0 19.031 33.303 1.951 
428 1 2 0.0 17.797 32.59 1.951 
429 1 2 0.0 16.564 33.303 1.951 
430 1 2 0.0 15.33 32.59 1.951 
431 1 1 0.0 14.713 32.947 1.951 
432 1 2 0.0 15.33 31.166 1.951 
433 1 1 0.0 14.713 30.809 1.951 
434 1 2 0.0 16.564 34.727 1.951 
435 1 2 0.0 17.797 35.438 1.951 
436 1 2 0.0 19.031 34.727 1.951 
437 1 2 0.0 20.264 35.438 1.951 
438 1 2 0.0 21.498 34.727 1.951 
439 1 2 0.0 22.731 35.438 1.951 
440 1 2 0.0 23.965 34.727 1.951 
441 1 2 0.0 25.198 35.438 1.951 
442 1 2 0.0 26.432 34.727 1.951 
443 1 2 0.0 27.665 35.438 1.951 
444 1 2 0.0 28.899 34.727 1.951 
445 1 2 0.0 30.132 35.438 1.951 
446 1 2 0.0 31.366 34.727 1.951 
447 1 2 0.0 32.599 35.438 1.951 
448 1 2 0.0 33.833 34.727 1.951 
449 1 2 0.0 35.066 35.438 1.951 
450 1 2 0.0 36.3 34.727 1.951 
451 1 2 0.0 37.533 35.438 1.951 
452 1 2 0.0 38.767 34.727 1.951 
453 1 2 0.0 40.0 35.438 1.951 
454 1 2 0.0 41.234 34.727 1.951 
455 1 2 0.0 42.467 35.438 1.951 
456 1 2 0.0 43.701 34.727 1.951 
457 1 2 0.0 44.934 35.438 1.951 
458 1 2 0.0 46.168 34.727 1.951 
459 1 2 0.0 47.401 35.438 1.951 
460 1 2 0.0 48.635 34.727 1.951 
461 1 2 0.0 49.868 35.438 1.951 
462 1 2 0.0 51.102 34.727 1.951 
463 1 2 0.0 52.335 35.438 1.951 
464 1 2 0.0 53.569 34.727 1.951 
465 1 2 0.0 54.802 35.438 1.951 
466 1 2 0.0 56.036 34.727 1.951 
467 1 2 0.0 57.269 35.438 1.951 
468 1 2 0.0 58.503 34.727 1.951 
469 1 2 0.0 59.736 35.438 1.951 
470 1 2 0.0 60.97 34.727 1.951 
471 1 2 0.0 60.97 33.303 1.951 
472 1 2 0.0 59.736 36.864 1.951 
473 1 2 0.0 58.503 37.575 1.951 
474 1 2 0.0 57.269 36.864 1.951 
475 1 2 0.0 56.036 37.575 1.951 
476 1 2 0.0 54.802 36.864 1.951 
477 1 2 0.0 53.569 37.575 1.951 
478 1 2 0.0 52.335 36.864 1.951 
479 1 2 0.0 51.102 37.575 1.951 
480 1 2 0.0 49.868 36.864 1.951 
481 1 2 0.0 48.635 37.575 1.951 
482 1 2 0.0 47.401 36.864 1.951 
483 1 2 0.0 46.168 37.575 1.951 
484 1 2 0.0 44.934 36.864 1.951 
485 1 2 0.0 43.701 37.575 1.951 
486 1 2 0.0 42.467 36.864 1.951 
487 1 2 0.0 41.234 37.575 1.951 
488 1 2 0.0 40.0 36.864 1.951 
489 1 2 0.0 38.767 37.575 1.951 
490 1 2 0.0 37.533 36.864 1.951 
491 1 2 0.0 36.3 37.575 1.951 
492 1 2 0.0 35.066 36.864 1.951 
493 1 2 0.0 33.833 37.575 1.951 
494 1 2 0.0 32.599 36.864 1.951 
495 1 2 0.0 31.366 37.575 1.951 
496 1 2 0.0 30.132 36.864 1.951 
497 1 2 0.0 28.899 37.575 1.951 
498 1 2 0.0 27.665 36.864 1.951 
499 1 2 0.0 26.432 37.575 1.951 
500 1 2 0.0 25.198 36.864 1.951 
501 1 2 0.0 23.965 37.575 1.951 
502 1 2 0.0 22.731 36.864 1.951 
503 1 2 0.0 21.498 37.575 1.951 
504 1 2 0.0 20.264 36.864 1.951 
505 1 2 0.0 19.031 37.575 1.951 
506 1 2 0.0 17.797 36.864 1.951 
507 1 2 0.0 16.564 37.575 1.951 
508 1 2 0.0 15.33 36.864 1.951 
509 1 1 0.0 14.713 37.22 1.951 
510 1 2 0.0 15.33 35.438 1.951 
511 1 1 0.0 14.713 35.082 1.951 
512 1 2 0.0 16.564 38.999 1.951 
513 1 2 0.0 17.797 39.712 1.951 
514 1 2 0.0 19.031 38.999 1.951 
515 1 2 0.0 20.264 39.712 1.951 
516 1 2 0.0 21.498 38.999 1.951 
517 1 2 0.0 22.731 39.712 1.951 
518 1 2 0.0 23.965 38.999 1.951 
519 1 2 0.0 25.198 39.712 1.951 
520 1 2 0.0 26.432 38.999 1.951 
521 1 2 0.0 27.665 39.712 1.951 
522 1 2 0.0 28.899 38.999 1.951 
523 1 2 0.0 30.132 39.712 1.951 
524 1 2 0.0 31.366 38.999 1.951 
525 1 2 0.0 32.599 39.712 1.951 
526 1 2 0.0 33.833 38.999 1.951 
527 1 2 0.0 35.066 39.712 1.951 
528 1 2 0.0 36.3 38.999 1.951 
529 1 2 0.0 37.533 39.712 1.951 
530 1 2 0.0 38.767 38.999 1.951 
531 1 2 0.0 40.0 39.712 1.951 
532 1 2 0.0 41.234 38.999 1.951 
533 1 2 0.0 42.467 39.712 1.951 
534 1 2 0.0 43.701 38.999 1.951 
535 1 2 0.0 44.934 39.712 1.951 
536 1 2 0.0 46.168 38.999 1.951 
537 1 2 0.0 47.401 39.712 1.951 
538 1 2 0.0 48.635 38.999 1.951 
539 1 2 0.0 49.868 39.712 1.951 
540 1 2 0.0 51.102 38.999 1.951 
541 1 2 0.0 52.335 39.712 1.951 
542 1 2 0.0 53.569 38.999 1.951 
543 1 2 0.0 54.802 39.712 1.951 
544 1 2 0.0 56.036 38.999 1.951 
545 1 2 0.0 57.269 39.712 1.951 
546 1 2 0.0 58.503 38.999 1.951 
547 1 2 0.0 59.736 39.712 1.951 
548 1 2 0.0 60.97 38.999 1.951 
549 1 2 0.0 60.97 37.575 1.951 
550 1 2 0.0 59.736 41.136 1.951 
551 1 2 0.0 58.503 41.849 1.951 
552 1 2 0.0 57.269 41.136 1.951 
553 1 2 0.0 56.036 41.849 1.951 
554 1 2 0.0 54.802 41.136 1.951 
555 1 2 0.0 53.569 41.849 1.951 
556 1 2 0.0 52.335 41.136 1.951 
557 1 2 0.0 51.102 41.849 1.951 
558 1 2 0.0 49.868 41.136 1.951 
559 1 2 0.0 48.635 41.849 1.951 
560 1 2 0.0 47.401 41.136 1.951 
561 1 2 0.0 46.168 41.849 1.951 
562 1 2 0.0 44.934 41.136 1.951 
563 1 2 0.0 43.701 41.849 1.951 
564 1 2 0.0 42.467 41.136 1.951 
565 1 2 0.0 41.234 41.849 1.951 
566 1 2 0.0 40.0 41.136 1.951 
567 1 2 0.0 38.767 41.849 1.951 
568 1 2 0.0 37.533 41.136 1.951 
569 1 2 0.0 36.3 41.849 1.951 
570 1 2 0.0 35.066 41.136 1.951 
571 1 2 0.0 33.833 41.849 1.951 
572 1 2 0.0 32.599 41.136 1.951 
573 1 2 0.0 31.366 41.849 1.951 
574 1 2 0.0 30.132 41.136 1.951 
575 1 2 0.0 28.899 41.849 1.951 
576 1 2 0.0 27.665 41.136 1.951 
577 1 2 0.0 26.432 41.849 1.951 
578 1 2 0.0 25.198 41.136 1.951 
579 1 2 0.0 23.965 41.849 1.951 
580 1 2 0.0 22.731 41.136 1.951 
581 1 2 0.0 21.498 41.849 1.951 
582 1 2 0.0 20.264 41.136 1.951 
583 1 2 0.0 19.031 41.849 1.951 
584 1 2 0.0 17.797 41.136 1.951 
585 1 2 0.0 16.564 41.849 1.951 
586 1 2 0.0 15.33 41.136 1.951 
587 1 1 0.0 14.713 41.493 1.951 
588 1 2 0.0 15.33 39.712 1.951 
589 1 1 0.0 14.713 39.355 1.951 
590 1 2 0.0 16.564 43.273 1.951 
591 1 2 0.0 17.797 43.984 1.951 
592 1 2 0.0 19.031 43.273 1.951 
593 1 2 0.0 20.264 43.984 1.951 
594 1 2 0.0 21.498 43.273 1.951 
595 1 2 0.0 22.731 43.984 1.951 
596 1 2 0.0 23.965 43.273 1.951 
597 1 2 0.0 25.198 43.984 1.951 
598 1 2 0.0 26.432 43.273 1.951 
599 1 2 0.0 27.665 43.984 1.951 
600 1 2 0.0 28.899 43.273 1.951 
601 1 2 0.0 30.132 43.984 1.951 
602 1 2 0.0 31.366 43.273 1.951 
603 1 2 0.0 32.599 43.984 1.951 
604 1 2 0.0 33.833 43.273 1.951 
605 1 2 0.0 35.066 43.984 1.951 
606 1 2 0.0 36.3 43.273 1.951 
607 1 2 0.0 37.533 43.984 1.951 
608 1 2 0.0 38.767 43.273 1.951 
609 1 2 0.0 40.0 43.984 1.951 
610 1 2 0.0 41.234 43.273 1.951 
611 1 2 0.0 42.467 43.984 1.951 
612 1 2 0.0 43.701 43.273 1.951 
613 1 2 0.0 44.934 43.984 1.951 
614 1 2 0.0 46.168 43.273 1.951 
615 1 2 0.0 47.401 43.984 1.951 
616 1 2 0.0 48.635 43.273 1.951 
617 1 2 0.0 49.868 43.984 1.951 
618 1 2 0.0 51.102 43.273 1.951 
619 1 2 0.0 52.335 43.984 1.951 
620 1 2 0.0 53.569 43.273 1.951 
621 1 2 0.0 54.802 43.984 1.951 
622 1 2 0.0 56.036 43.273 1.951 
623 1 2 0.0 57.269 43.984 1.951 
624 1 2 0.0 58.503 43.273 1.951 
625 1 2 0.0 59.736 43.984 1.951 
626 1 2 0.0 60.97 43.273 1.951 
627 1 2 0.0 60.97 41.849 1.951 
628 1 2 0.0 59.736 45.41 1.951 
629 1 2 0.0 58.503 46.121 1.951 
630 1 2 0.0 57.269 45.41 1.951 
631 1 2 0.0 56.036 46.121 1.951 
632 1 2 0.0 54.802 45.41 1.951 
633 1 2 0.0 53.569 46.121 1.951 
634 1 2 0.0 52.335 45.41 1.951 
635 1 2 0.0 51.102 46.121 1.951 
636 1 2 0.0 49.868 45.41 1.951 
637 1 2 0.0 48.635 46.121 1.951 
638 1 2 0.0 47.401 45.41 1.951 
639 1 2 0.0 46.168 46.121 1.951 
640 1 2 0.0 44.934 45.41 1.951 
641 1 2 0.0 43.701 46.121 1.951 
642 1 2 0.0 42.467 45.41 1.951 
643 1 2 0.0 41.234 46.121 1.951 
644 1 2 0.0 40.0 45.41 1.951 
645 1 2 0.0 38.767 46.121 1.951 
646 1 2 0.0 37.533 45.41 1.951 
647 1 2 0.0 36.3 46.121 1.951 
648 1 2 0.0 35.066 45.41 1.951 
649 1 2 0.0 33.833 46.121 1.951 
650 1 2 0.0 32.599 45.41 1.951 
651 1 2 0.0 31.366 46.121 1.951 
652 1 2 0.0 30.132 45.41 1.951 
653 1 2 0.0 28.899 46.121 1.951 
654 1 2 0.0 27.665 45.41 1.951 
655 1 2 0.0 26.432 46.121 1.951 
656 1 2 0.0 25.198 45.41 1.951 
657 1 2 0.0 23.965 46.121 1.951 
658 1 2 0.0 22.731 45.41 1.951 
659 1 2 0.0 21.498 46.121 1.951 
660 1 2 0.0 20.264 45.41 1.951 
661 1 2 0.0 19.031 46.121 1.951 
662 1 2 0.0 17.797 45.41 1.951 
663 1 2 0.0 16.564 46.121 1.951 
664 1 2 0.0 15.33 45.41 1.951 
665 1 1 0.0 14.713 45.766 1.951 
666 1 2 0.0 15.33 43.984 1.951 
667 1 1 0.0 14.713 43.628 1.951 
668 1 2 0.0 16.564 47.545 1.951 
669 1 2 0.0 17.797 48.258 1.951 
670 1 2 0.0 19.031 47.545 1.951 
671 1 2 0.0 20.264 48.258 1.951 
672 1 2 0.0 21.498 47.545 1.951 
673 1 2 0.0 22.731 48.258 1.951 
674 1 2 0.0 23.965 47.545 1.951 
675 1 2 0.0 25.198 48.258 1.951 
676 1 2 0.0 26.432 47.545 1.951 
677 1 2 0.0 27.665 48.258 1.951 
678 1 2 0.0 28.899 47.545 1.951 
679 1 2 0.0 30.132 48.258 1.951 
680 1 2 0.0 31.366 47.545 1.951 
681 1 2 0.0 32.599 48.258 1.951 
682 1 2 0.0 33.833 47.545 1.951 
683 1 2 0.0 35.066 48.258 1.951 
684 1 2 0.0 36.3 47.545 1.951 
685 1 2 0.0 37.533 48.258 1.951 
686 1 2 0.0 38.767 47.545 1.951 
687 1 2 0.0 40.0 48.258 1.951 
688 1 2 0.0 41.234 47.545 1.951 
689 1 2 0.0 42.467 48.258 1.951 
690 1 2 0.0 43.701 47.545 1.951 
691 1 2 0.0 44.934 48.258 1.951 
692 1 2 0.0 46.168 47.545 1.951 
693 1 2 0.0 47.401 48.258 1.951 
694 1 2 0.0 48.635 47.545 1.951 
695 1 2 0.0 49.868 48.258 1.951 
696 1 2 0.0 51.102 47.545 1.951 
697 1 2 0.0 52.335 48.258 1.951 
698 1 2 0.0 53.569 47.545 1.951 
699 1 2 0.0 54.802 48.258 1.951 
700 1 2 0.0 56.036 47.545 1.951 
701 1 2 0.0 57.269 48.258 1.951 
702 1 2 0.0 58.503 47.545 1.951 
703 1 2 0.0 59.736 48.258 1.951 
704 1 2 0.0 60.97 47.545 1.951 
705 1 2 0.0 60.97 46.121 1.951 
706 1 2 0.0 59.736 49.682 1.951 
707 1 2 0.0 58.503 50.395 1.951 
708 1 2 0.0 57.269 49.682 1.951 
709 1 2 0.0 56.036 50.395 1.951 
710 1 2 0.0 54.802 49.682 1.951 
711 1 2 0.0 53.569 50.395 1.951 
712 1 2 0.0 52.335 49.682 1.951 
713 1 2 0.0 51.102 50.395 1.951 
714 1 2 0.0 49.868 49.682 1.951 
715 1 2 0.0 48.635 50.395 1.951 
716 1 2 0.0 47.401 49.682 1.951 
717 1 2 0.0 46.168 50.395 1.951 
718 1 2 0.0 44.934 49.682 1.951 
719 1 2 0.0 43.701 50.395 1.951 
720 1 2 0.0 42.467 49.682 1.951 
721 1 2 0.0 41.234 50.395 1.951 
722 1 2 0.0 40.0 49.682 1.951 
723 1 2 0.0 38.767 50.395 1.951 
724 1 2 0.0 37.533 49.682 1.951 
725 1 2 0.0 36.3 50.395 1.951 
726 1 2 0.0 35.066 49.682 1.951 
727 1 2 0.0 33.833 50.395 1.951 
728 1 2 0.0 32.599 49.682 1.951 
729 1 2 0.0 31.366 50.395 1.951 
730 1 2 0.0 30.132 49.682 1.951 
731 1 2 0.0 28.899 50.395 1.951 
732 1 2 0.0 27.665 49.682 1.951 
733 1 2 0.0 26.432 50.395 1.951 
734 1 2 0.0 25.198 49.682 1.951 
735 1 2 0.0 23.965 50.395 1.951 
736 1 2 0.0 22.731 49.682 1.951 
737 1 2 0.0 21.498 50.395 1.951 
738 1 2 0.0 20.264 49.682 1.951 
739 1 2 0.0 19.031 50.395 1.951 
740 1 2 0.0 17.797 49.682 1.951 
741 1 2 0.0 16.564 50.395 1.951 
742 1 2 0.0 15.33 49.682 1.951 
743 1 1 0.0 14.713 50.039 1.951 
744 1 2 0.0 15.33 48.258 1.951 
745 1 1 0.0 14.713 47.901 1.951 
746 1 2 0.0 16.564 51.819 1.951 
747 1 2 0.0 17.797 52.531 1.951 
748 1 2 0.0 19.031 51.819 1.951 
749 1 2 0.0 20.264 52.531 1.951 
750 1 2 0.0 21.498 51.819 1.951 
751 1 2 0.0 22.731 52.531 1.951 
752 1 2 0.0 23.965 51.819 1.951 
753 1 2 0.0 25.198 52.531 1.951 
754 1 2 0.0 26.432 51.819 1.951 
755 1 2 0.0 27.665 52.531 1.951 
756 1 2 0.0 28.899 51.819 1.951 
757 1 2 0.0 30.132 52.531 1.951 
758 1 2 0.0 31.366 51.819 1.951 
759 1 2 0.0 32.599 52.531 1.951 
760 1 2 0.0 33.833 51.819 1.951 
761 1 2 0.0 35.066 52.531 1.951 
762 1 2 0.0 36.3 51.819 1.951 
763 1 2 0.0 37.533 52.531 1.951 
764 1 2 0.0 38.767 51.819 1.951 
765 1 2 0.0 40.0 52.531 1.951 
766 1 2 0.0 41.234 51.819 1.951 
767 1 2 0.0 42.467 52.531 1.951 
768 1 2 0.0 43.701 51.819 1.951 
769 1 2 0.0 44.934 52.531 1.951 
770 1 2 0.0 46.168 51.819 1.951 
771 1 2 0.0 47.401 52.531 1.951 
772 1 2 0.0 48.635 51.819 1.951 
773 1 2 0.0 49.868 52.531 1.951 
774 1 2 0.0 51.102 51.819 1.951 
775 1 2 0.0 52.335 52.531 1.951 
776 1 2 0.0 53.569 51.819 1.951 
777 1 2 0.0 54.802 52.531 1.951 
778 1 2 0.0 56.036 51.819 1.951 
779 1 2 0.0 57.269 52.531 1.951 
780 1 2 0.0 58.503 51.819 1.951 
781 1 2 0.0 59.736 52.531 1.951 
782 1 2 0.0 60.97 51.819 1.951 
783 1 2 0.0 60.97 50.395 1.951 
784 1 2 0.0 59.736 53.956 1.951 
785 1 2 0.0 58.503 54.667 1.951 
786 1 2 0.0 57.269 53.956 1.951 
787 1 2 0.0 56.036 54.667 1.951 
788 1 2 0.0 54.802 53.956 1.951 
789 1 2 0.0 53.569 54.667 1.951 
790 1 2 0.0 52.335 53.956 1.951 
791 1 2 0.0 51.102 54.667 1.951 
792 1 2 0.0 49.868 53.956 1.951 
793 1 2 0.0 48.635 54.667 1.951 
794 1 2 0.0 47.401 53.956 1.951 
795 1 2 0.0 46.168 54.667 1.951 
796 1 2 0.0 44.934 53.956 1.951 
797 1 2 0.0 43.701 54.667 1.951 
798 1 2 0.0 42.467 53.956 1.951 
799 1 2 0.0 41.234 54.667 1.951 
800 1 2 0.0 40.0 53.956 1.951 
801 1 2 0.0 38.767 54.667 1.951 
802 1 2 0.0 37.533 53.956 1.951 
803 1 2 0.0 36.3 54.667 1.951 
804 1 2 0.0 35.066 53.956 1.951 
805 1 2 0.0 33.833 54.667 1.951 
806 1 2 0.0 32.599 53.956 1.951 
807 1 2 0.0 31.366 54.667 1.951 
808 1 2 0.0 30.132 53.956 1.951 
809 1 2 0.0 28.899 54.667 1.951 
810 1 2 0.0 27.665 53.956 1.951 
811 1 2 0.0 26.432 54.667 1.951 
812 1 2 0.0 25.198 53.956 1.951 
813 1 2 0.0 23.965 54.667 1.951 
814 1 2 0.0 22.731 53.956 1.951 
815 1 2 0.0 21.498 54.667 1.951 
816 1 2 0.0 20.264 53.956 1.951 
817 1 2 0.0 19.031 54.667 1.951 
818 1 2 0.0 17.797 53.956 1.951 
819 1 2 0.0 16.564 54.667 1.951 
820 1 2 0.0 15.33 53.956 1.951 
821 1 1 0.0 14.713 54.312 1.951 
822 1 2 0.0 15.33 52.531 1.951 
823 1 1 0.0 14.713 52.174 1.951 
824 1 2 0.0 16.564 56.092 1.951 
825 1 2 0.0 17.797 56.803 1.951 
826 1 2 0.0 19.031 56.092 1.951 
827 1 2 0.0 20.264 56.803 1.951 
828 1 2 0.0 21.498 56.092 1.951 
829 1 2 0.0 22.731 56.803 1.951 
830 1 2 0.0 23.965 56.092 1.951 
831 1 2 0.0 25.198 56.803 1.951 
832 1 2 0.0 26.432 56.092 1.951 
833 1 2 0.0 27.665 56.803 1.951 
834 1 2 0.0 28.899 56.092 1.951 
835 1 2 0.0 30.132 56.803 1.951 
836 1 2 0.0 31.366 56.092 1.951 
837 1 2 0.0 32.599 56.803 1.951 
838 1 2 0.0 33.833 56.092 1.951 
839 1 2 0.0 35.066 56.803 1.951 
840 1 2 0.0 36.3 56.092 1.951 
841 1 2 0.0 37.533 56.803 1.951 
842 1 2 0.0 38.767 56.092 1.951 
843 1 2 0.0 40.0 56.803 1.951 
844 1 2 0.0 41.234 56.092 1.951 
845 1 2 0.0 42.467 56.803 1.951 
846 1 2 0.0 43.701 56.092 1.951 
847 1 2 0.0 44.934 56.803 1.951 
848 1 2 0.0 46.168 56.092 1.951 
849 1 2 0.0 47.401 56.803 1.951 
850 1 2 0.0 48.635 56.092 1.951 
851 1 2 0.0 49.868 56.803 1.951 
852 1 2 0.0 51.102 56.092 1.951 
853 1 2 0.0 52.335 56.803 1.951 
854 1 2 0.0 53.569 56.092 1.951 
855 1 2 0.0 54.802 56.803 1.951 
856 1 2 0.0 56.036 56.092 1.951 
857 1 2 0.0 57.269 56.803 1.951 
858 1 2 0.0 58.503 56.092 1.951 
859 1 2 0.0 59.736 56.803 1.951 
860 1 2 0.0 60.97 56.092 1.951 
861 1 2 0.0 60.97 54.667 1.951 
862 1 2 0.0 59.736 58.228 1.951 
863 1 2 0.0 58.503 58.941 1.951 
864 1 2 0.0 57.269 58.228 1.951 
865 1 2 0.0 56.036 58.941 1.951 
866 1 2 0.0 54.802 58.228 1.951 
867 1 2 0.0 53.569 58.941 1.951 
868 1 2 0.0 52.335 58.228 1.951 
869 1 2 0.0 51.102 58.941 1.951 
870 1 2 0.0 49.868 58.228 1.951 
871 1 2 0.0 48.635 58.941 1.951 
872 1 2 0.0 47.401 58.228 1.951 
873 1 2 0.0 46.168 58.941 1.951 
874 1 2 0.0 44.934 58.228 1.951 
875 1 2 0.0 43.701 58.941 1.951 
876 1 2 0.0 42.467 58.228 1.951 
877 1 2 0.0 41.234 58.941 1.951 
878 1 2 0.0 40.0 58.228 1.951 
879 1 2 0.0 38.767 58.941 1.951 
880 1 2 0.0 37.533 58.228 1.951 
881 1 2 0.0 36.3 58.941 1.951 
882 1 2 0.0 35.066 58.228 1.951 
883 1 2 0.0 33.833 58.941 1.951 
884 1 2 0.0 32.599 58.228 1.951 
885 1 2 0.0 31.366 58.941 1.951 
886 1 2 0.0 30.132 58.228 1.951 
887 1 2 0.0 28.899 58.941 1.951 
888 1 2 0.0 27.665 58.228 1.951 
889 1 2 0.0 26.432 58.941 1.951 
890 1 2 0.0 25.198 58.228 1.951 
891 1 2 0.0 23.965 58.941 1.951 
892 1 2 0.0 22.731 58.228 1.951 
893 1 2 0.0 21.498 58.941 1.951 
894 1 2 0.0 20.264 58.228 1.951 
895 1 2 0.0 19.031 58.941 1.951 
896 1 2 0.0 17.797 58.228 1.951 
897 1 2 0.0 16.564 58.941 1.951 
898 1 2 0.0 15.33 58.228 1.951 
899 1 1 0.0 14.713 58.585 1.951 
900 1 2 0.0 15.33 56.803 1.951 
901 1 1 0.0 14.713 56.447 1.951 
902 1 2 0.0 16.564 60.364 1.951 
903 1 1 0.0 15.947 60.721 1.951 
904 1 2 0.0 17.797 61.077 1.951 
905 1 1 0.0 17.797 61.788 1.951 
906 1 2 0.0 19.031 60.364 1.951 
907 1 2 0.0 20.264 61.077 1.951 
908 1 1 0.0 20.264 61.788 1.951 
909 1 2 0.0 21.498 60.364 1.951 