LAMMPS data file via write_data, version 2 Aug 2023, timestep = 5500, units = real

960 atoms
2 atom types
2555 bonds
4 bond types
2634 angles
2 angle types
5104 dihedrals
2 dihedral types
878 impropers
1 improper types

-50 50 xlo xhi
-50 50 ylo yhi
-50 50 zlo zhi

Masses

1 1.008
2 12.011

Pair Coeffs # lj/cut

1 0.0282937 2.37341
2 0.0734574 3.52053

Bond Coeffs # harmonic

1 399.792 1.43
2 155.354 1.42
3 418.26 0.743
4 0 0

Angle Coeffs # harmonic

1 45.1871 120
2 50.1166 120

Dihedral Coeffs # harmonic

1 9.99044 -1 2
2 0 1 1

Improper Coeffs # harmonic

1 20.0075 0

Atoms # full

121 1 2 0 -3.287854790161104 -3.859854934672862 2.6087817069754564 0 0 0
122 1 1 0 -3.917375193334071 -4.246066866989925 2.5652207894863492 0 0 0
118 1 2 0 -0.8234853162026593 -3.8370233738712476 2.9064195720612545 0 0 0
119 1 2 0 -2.040175164564859 -4.5563396039626785 2.731222893974701 0 0 0
120 1 1 0 -2.0185877976332782 -5.2910059551278845 2.689881604975393 0 0 0
123 1 2 0 -3.330785364601907 -2.4500322057726764 2.6135804478244995 0 0 0
196 1 2 0 -4.591198495607861 -0.33734229224814105 2.250178415589384 0 0 0
198 1 2 0 -4.548784790906009 -1.7661084911463347 2.33775179966628 0 0 0
199 1 1 0 -5.192837703961653 -2.143067480325951 2.259948500032003 0 0 0
124 1 2 0 -2.1203349194105643 -1.7358841075220557 2.782549793013173 0 0 0
125 1 2 0 -0.862794311057695 -2.419698291448079 2.8963091598954573 0 0 0
194 1 2 0 -2.153027809370991 -0.30653332008863754 2.7004656481170377 0 0 0
112 1 2 0 4.0871493212772645 -3.7488672185809446 2.1999070010141795 0 0 0
113 1 2 0 2.86926478426856 -4.485041951202721 2.4071696808460947 0 0 0
114 1 1 0 2.866881188259754 -5.218479956516781 2.356061150269463 0 0 0
115 1 2 0 1.6356725801823186 -3.8022613323263696 2.7319841975746018 0 0 0
116 1 2 0 0.4105742134786871 -4.514267881298726 2.8855182070909 0 0 0
117 1 1 0 0.4180538893760031 -5.247086758772252 2.977348495297613 0 0 0
107 1 2 0 7.744106281139328 -4.4616383274970115 1.684471329148714 0 0 0
108 1 1 0 7.760178497560388 -5.184005935948687 1.5611723798874682 0 0 0
109 1 2 0 6.512843359315301 -3.76409500375702 1.6469120345771415 0 0 0
110 1 2 0 5.296540970811833 -4.4575614327525335 1.8671754305676374 0 0 0
111 1 1 0 5.303356717493274 -5.193095731979853 1.7722540043728374 0 0 0
126 1 2 0 0.3892694426963266 -1.695705645588549 2.9469583532433847 0 0 0
127 1 2 0 1.6203246289686903 -2.3868176047825678 2.7615242748534317 0 0 0
128 1 2 0 2.860609687959712 -1.6522153541045985 2.5085809361022156 0 0 0
129 1 2 0 4.085679200138153 -2.3392724300099554 2.257869738464402 0 0 0
190 1 2 0 2.840589037372591 -0.22639147426401376 2.443180457704497 0 0 0
192 1 2 0 0.3741966980896429 -0.2603112305165366 2.894685789651325 0 0 0
130 1 2 0 5.285478691846565 -1.649890596935351 1.9387499372393124 0 0 0
131 1 2 0 6.517682672734089 -2.3579737281436723 1.7696618700517064 0 0 0
132 1 2 0 7.749107395095403 -1.6406391575356418 1.7851396765176226 0 0 0
186 1 2 0 7.715947239321363 -0.21774744919771724 1.9034804574290431 0 0 0
188 1 2 0 5.270222004032523 -0.23077552982563387 1.93588791284682 0 0 0
101 1 2 0 12.623797134333568 -4.415028801136038 2.5217150584359174 0 0 0
102 1 1 0 12.648405816260144 -5.1568976962857205 2.6073489819782756 0 0 0
103 1 2 0 11.3842475714708 -3.698433737016001 2.460581991429926 0 0 0
104 1 2 0 10.182838964634675 -4.425880172024388 2.1914655408085197 0 0 0
105 1 1 0 10.203293474772426 -5.168374806979467 2.1469345097576094 0 0 0
106 1 2 0 8.968727673448736 -3.736173281057539 1.9601745791134062 0 0 0
97 1 2 0 16.324030445706597 -3.698010461671165 2.6009783761660676 0 0 0
98 1 2 0 15.082654498737595 -4.408650014690587 2.513484965978229 0 0 0
99 1 1 0 15.098328115990547 -5.1519324387708 2.430855087659865 0 0 0
100 1 2 0 13.839607220394782 -3.6828645364864427 2.5553072375323627 0 0 0
133 1 2 0 8.949119751629663 -2.3276091269378076 2.0499468002445727 0 0 0
134 1 2 0 10.135079485288733 -1.5867580800511665 2.349692432690471 0 0 0
135 1 2 0 11.380824240805156 -2.2596359587251134 2.470898050727205 0 0 0
136 1 2 0 12.605519404216054 -1.5178133255930193 2.586218061042542 0 0 0
182 1 2 0 12.57439434221272 -0.07806592048451028 2.6222589455497562 0 0 0
184 1 2 0 10.116242888017384 -0.15376606668601162 2.340528110704221 0 0 0
137 1 2 0 13.82691084070339 -2.2319908702868445 2.665452845731292 0 0 0
138 1 2 0 15.055755987483213 -1.5397684534508425 2.7801452018197663 0 0 0
139 1 2 0 16.31629414563122 -2.271760177030733 2.7011868302110678 0 0 0
180 1 2 0 15.041830764962706 -0.10557685929514848 2.743206372417379 0 0 0
91 1 2 0 21.225162729695864 -3.6696268639877774 1.8271352652451487 0 0 0
92 1 2 0 19.986096858525645 -4.396067160387076 1.8733568082258785 0 0 0
93 1 1 0 19.99620261917008 -5.144790056367934 1.7902996917191334 0 0 0
94 1 2 0 18.752541944373622 -3.704019434044906 2.175776666328671 0 0 0
95 1 2 0 17.547689659127393 -4.405336782112932 2.3585944442986184 0 0 0
96 1 1 0 17.55162785140897 -5.148419589072578 2.3775295902885207 0 0 0
86 1 2 0 24.870277745640035 -4.387696652520292 2.0957290631474157 0 0 0
87 1 1 0 24.887702243093543 -5.143441316936361 2.045427917832835 0 0 0
88 1 2 0 23.64890954019462 -3.661234814483721 1.9505711733222075 0 0 0
89 1 2 0 22.44444991948773 -4.381555497067719 1.8037246472174424 0 0 0
90 1 1 0 22.442757277235252 -5.138326055017322 1.7499891612181087 0 0 0
140 1 2 0 17.529215076606985 -1.5627686125493199 2.5307993628972856 0 0 0
141 1 2 0 18.76705034813892 -2.2757293698858034 2.3169657978656066 0 0 0
142 1 2 0 19.97512200863898 -1.5650620118576264 2.197976024499817 0 0 0
143 1 2 0 21.21640595525444 -2.2540405207378424 1.9851204034076388 0 0 0
176 1 2 0 19.960072285997917 -0.13755562918666908 2.318477445516698 0 0 0
178 1 2 0 17.501891442551845 -0.13289813314383897 2.5127952410696284 0 0 0
144 1 2 0 22.45226209700458 -1.5285343035416494 1.9796942474361656 0 0 0
145 1 2 0 23.649066615902438 -2.226024808942287 2.0400859539177416 0 0 0
146 1 2 0 24.86292992503411 -1.4896031062501804 2.2493334869979478 0 0 0
172 1 2 0 24.861640506174343 -0.05760044576942637 2.2271994592296984 0 0 0
174 1 2 0 22.425621393987814 -0.11154623194178846 2.155756741794617 0 0 0
77 1 2 0 32.27074153592334 -4.425158456067119 2.357449698149227 0 0 0
78 1 1 0 32.24935562547265 -5.177709603861548 2.320570134303869 0 0 0
79 1 2 0 31.059693471560774 -3.691332188362554 2.297239790965833 0 0 0
80 1 2 0 29.80962824714251 -4.397389775966007 2.2937839268402485 0 0 0
81 1 1 0 29.791096690927144 -5.157402938157746 2.316344934862951 0 0 0
82 1 2 0 28.577033959438666 -3.649915939581694 2.274308418849642 0 0 0
83 1 2 0 27.3285523104548 -4.402007413450538 2.3811612249943788 0 0 0
84 1 1 0 27.338811533859868 -5.159431957995395 2.414549090504783 0 0 0
85 1 2 0 26.099509704392165 -3.67614902160268 2.3300980919713585 0 0 0
151 1 2 0 31.09268187614403 -2.255484037397249 2.2590163887574963 0 0 0
152 1 2 0 32.35410341985761 -1.5493965916398247 2.3413125102132315 0 0 0
166 1 2 0 32.34664598756535 -0.11552831042175309 2.312276911287738 0 0 0
147 1 2 0 26.094081432976623 -2.202363937792196 2.287365162004293 0 0 0
148 1 2 0 27.347052119908273 -1.475563037307575 2.239962634803823 0 0 0
149 1 2 0 28.59065020179772 -2.2067736874893127 2.1702384558812766 0 0 0
150 1 2 0 29.857219615835724 -1.5033820982437207 2.1412680250174447 0 0 0
168 1 2 0 29.86592722912639 -0.06982068544081295 2.164845942194517 0 0 0
170 1 2 0 27.36585375595156 -0.04523953513733933 2.2001425158329377 0 0 0
71 1 2 0 37.1685893873226 -4.476961384380367 2.95186413655818 0 0 0
72 1 1 0 37.13282863371029 -5.2192125560537015 3.024115575226216 0 0 0
73 1 2 0 36.00908239699304 -3.751629479577609 2.5913527062741335 0 0 0
74 1 2 0 34.75232330862965 -4.451132249064379 2.440664797420797 0 0 0
75 1 1 0 34.70113958334166 -5.196347714639277 2.411101203381812 0 0 0
76 1 2 0 33.537340979939025 -3.7149004765367053 2.4062111840949845 0 0 0
67 1 2 0 40.82024489633009 -3.7705172789177706 3.733936429005933 0 0 0
68 1 2 0 39.59440843071339 -4.496040989807466 3.603947976738151 0 0 0
69 1 1 0 39.577812926595 -5.24605213378784 3.7221347463788943 0 0 0
70 1 2 0 38.40371567485827 -3.776691693848325 3.185294495300243 0 0 0
153 1 2 0 33.59497035854579 -2.278980681723667 2.414134038293356 0 0 0
154 1 2 0 34.834176664600726 -1.58116918184485 2.4733879859168817 0 0 0
155 1 2 0 36.06294194597239 -2.303614663229501 2.53150459434928 0 0 0
156 1 2 0 37.27288881509168 -1.590374937710677 2.6989696268356993 0 0 0
162 1 2 0 37.27808214629906 -0.1601680476622921 2.754671302258221 0 0 0
164 1 2 0 34.82969516365935 -0.15000440515180624 2.5358172116443987 0 0 0
157 1 2 0 38.46711873119036 -2.315319932066796 3.0132474284874986 0 0 0
158 1 2 0 39.67663349667838 -1.598618788443121 3.244408330540459 0 0 0
159 1 2 0 40.88454386788286 -2.351058947194553 3.379299436681548 0 0 0
160 1 2 0 39.73459007246485 -0.1762157637609171 3.0240491508448755 0 0 0
63 1 2 0 43.26664129055297 -3.891828731297245 3.6886994576231467 0 0 0
64 1 1 0 43.91173049561565 -4.275673397107155 3.739611295503448 0 0 0
65 1 2 0 42.03054256539084 -4.551108795919204 3.9262186080854207 0 0 0
66 1 1 0 42.02029929635205 -5.299443509743749 4.048146715198128 0 0 0
59 1 2 0 42.165898312428915 -0.26113465562562 2.8720059965227387 0 0 0
60 1 2 0 42.13126756743842 -1.6823371447636044 3.1491956948188093 0 0 0
61 1 2 0 43.32063689104263 -2.4812970636140617 3.2980413943300486 0 0 0
62 1 1 0 43.974398425005454 -2.141737317270325 3.1995891004653365 0 0 0
195 1 2 0 -3.3833469295754854 0.3850489788209519 2.3991848567752347 0 0 0
197 1 1 0 -5.223903298612155 0.010732099847644273 2.115263778210125 0 0 0
200 1 2 0 -3.3795191177952364 1.8210794765752878 2.3548293381060543 0 0 0
273 1 2 0 -3.432424226218581 4.676369084591668 2.460712915904407 0 0 0
274 1 2 0 -4.639276454882508 3.988021242412539 2.0881899337323273 0 0 0
275 1 1 0 -5.237217711130758 4.3612204983012965 1.8659304993248007 0 0 0
276 1 2 0 -4.62169385324716 2.5618794417051567 2.074152822040245 0 0 0
277 1 1 0 -5.231610166602192 2.2108768289668634 1.855267007144938 0 0 0
193 1 2 0 -0.9057588548263935 0.4138268932722011 2.9055903681559045 0 0 0
201 1 2 0 -2.1695629264707943 2.5290610263315276 2.65405235151256 0 0 0
202 1 2 0 -0.9156967506206865 1.8280326352697414 2.7756819305403435 0 0 0
271 1 2 0 -0.979754975368766 4.681211872313012 2.6736969224176472 0 0 0
272 1 2 0 -2.210154082023392 3.9607677616421224 2.6551727001459233 0 0 0
278 1 2 0 -3.3966804549356358 6.116380646991434 2.4361859823513967 0 0 0
352 1 2 0 -4.599975520349622 8.282304535088974 2.625783373950708 0 0 0
354 1 2 0 -4.590892004345179 6.891232995913214 2.557163626794734 0 0 0
355 1 1 0 -5.233240873147657 6.537104413126531 2.6931803419419778 0 0 0
279 1 2 0 -2.1649282117125823 6.834753580594563 2.4536979490194786 0 0 0
280 1 2 0 -0.956043332394844 6.097736264168996 2.472757371404573 0 0 0
350 1 2 0 -2.1580083396477856 8.2632328372867 2.4710007728805956 0 0 0
189 1 2 0 4.022659247684447 0.4899278943056777 2.0518674060929563 0 0 0
191 1 2 0 1.6161179346590546 0.46513352857905593 2.6579174829849754 0 0 0
203 1 2 0 0.33404880648744584 2.558641481967046 2.758608838828317 0 0 0
204 1 2 0 1.5858954537768684 1.8680899700470708 2.5163955496567594 0 0 0
205 1 2 0 2.7723212900355327 2.609532469326543 2.120728006942061 0 0 0
206 1 2 0 3.9991828900723374 1.9038401563961067 1.9092749395958093 0 0 0
267 1 2 0 3.9056957789184907 4.753542312854011 1.654317451751561 0 0 0
268 1 2 0 2.7043678337092873 4.030094331503655 2.0160537213135474 0 0 0
269 1 2 0 1.4957723206239717 4.710876930520215 2.342844758452126 0 0 0
270 1 2 0 0.28049523172822116 3.989972591709163 2.680207384463996 0 0 0
187 1 2 0 6.500271761882973 0.4862856631263881 1.8173355894904766 0 0 0
207 1 2 0 5.202911062383194 2.607065557994648 1.5838270028209465 0 0 0
208 1 2 0 6.458772287840926 1.9109671769035468 1.6766919132130653 0 0 0
209 1 2 0 7.660586798501269 2.6527585021681195 1.6752369386726789 0 0 0
264 1 2 0 7.659294021437648 4.085330750350327 1.5351542763116448 0 0 0
265 1 2 0 6.411346832883808 4.778933210003158 1.3734862259711318 0 0 0
266 1 2 0 5.1683366989937864 4.047721127496162 1.46147520060859 0 0 0
281 1 2 0 0.2858928252085971 6.802663441111042 2.3450029614593038 0 0 0
282 1 2 0 1.5186022488264381 6.132385236102295 2.26910218814629 0 0 0
283 1 2 0 2.7285552478588366 6.885273965452949 1.9256201860110926 0 0 0
284 1 2 0 3.9291495184296923 6.190705053146299 1.6779634198121283 0 0 0
285 1 2 0 5.1570074110213415 6.921407035650073 1.3844194723582683 0 0 0
286 1 2 0 6.393116307766371 6.204835250846747 1.2031242547745007 0 0 0
287 1 2 0 7.625374625649678 6.8923702908482065 1.1254134524162591 0 0 0
346 1 2 0 2.7237890470624775 8.303716919873608 1.7999387743864177 0 0 0
348 1 2 0 0.29374200708166187 8.219229605082592 2.1911575876847866 0 0 0
342 1 2 0 7.616578025897142 8.317588150670856 1.1410377343702123 0 0 0
344 1 2 0 5.170353560821885 8.344912277248145 1.3936444798170342 0 0 0
183 1 2 0 11.331544180123744 0.600124499414441 2.4750983110879483 0 0 0
185 1 2 0 8.894075479052544 0.5200693794098032 2.0488718200999996 0 0 0
210 1 2 0 8.86719523670419 1.964385373621461 1.9505187431373698 0 0 0
211 1 2 0 10.105204031688407 2.7096550856598802 2.0745513374124895 0 0 0
212 1 2 0 11.331680394470492 2.022006995536185 2.33596118366854 0 0 0
213 1 2 0 12.55635013530561 2.7308022322410834 2.268186062119663 0 0 0
260 1 2 0 12.577225643970035 4.123394188770299 1.930157407409968 0 0 0
261 1 2 0 11.341999870421095 4.8145638458212465 1.787129082320079 0 0 0
262 1 2 0 10.104974795539825 4.119878860142035 1.8166100353554 0 0 0
263 1 2 0 8.886714594360123 4.815220444155537 1.4975873684065604 0 0 0
179 1 2 0 16.26528904639198 0.5883165692971063 2.585655462671589 0 0 0
181 1 2 0 13.80608293386706 0.6427294976610681 2.6509126898044015 0 0 0
214 1 2 0 13.797940349860824 2.040533533886719 2.3947136500994777 0 0 0
215 1 2 0 15.041013584546139 2.7402246996128077 2.192710523275779 0 0 0
216 1 2 0 16.271740515886933 2.0196705044629466 2.343117428437395 0 0 0
257 1 2 0 16.28977403743329 4.825466789732813 1.652806985301292 0 0 0
258 1 2 0 15.050489369717107 4.133830462664029 1.8434215195197725 0 0 0
259 1 2 0 13.805384961829018 4.846593512031842 1.8430243657758592 0 0 0
288 1 2 0 8.873076745902798 6.193728330418087 1.2920235420753792 0 0 0
289 1 2 0 10.080071087024518 6.906360317818739 1.4242366184892497 0 0 0
290 1 2 0 11.306071216246764 6.223829804358215 1.6445482081739715 0 0 0
291 1 2 0 12.505999027620081 6.921484249999852 1.7659338880896793 0 0 0
292 1 2 0 13.768750970708465 6.236775490465597 1.721179960733377 0 0 0
293 1 2 0 15.021430767817517 6.945734203926308 1.6370555335781232 0 0 0
294 1 2 0 16.275266448564985 6.257115295052718 1.6449507923668798 0 0 0
338 1 2 0 12.493370843369444 8.339743106736591 1.723873738675874 0 0 0
340 1 2 0 10.058697998611391 8.339327117114262 1.420630775110672 0 0 0
336 1 2 0 15.00281058625003 8.360678707385688 1.7224146307658446 0 0 0
175 1 2 0 21.189271061013986 0.5717942192139559 2.2307417200861814 0 0 0
177 1 2 0 18.724854779580514 0.5782301560966628 2.3423669432329004 0 0 0
217 1 2 0 17.496535547945008 2.7124816207506073 2.1225291036481817 0 0 0
218 1 2 0 18.705516502402514 2.0059709393709206 2.2609898765624004 0 0 0
219 1 2 0 19.93720355596767 2.6767942675627903 2.1909649402332363 0 0 0
220 1 2 0 21.168492759739966 1.963319131128979 2.226195055929679 0 0 0
253 1 2 0 21.151773871644973 4.806466897594161 2.0499572859922983 0 0 0
254 1 2 0 19.93553400337548 4.098310577836809 2.0958915988061273 0 0 0
255 1 2 0 18.730597007815835 4.81940765976733 1.9367167457946854 0 0 0
256 1 2 0 17.5140550622233 4.111675175641838 1.8114901395409138 0 0 0
173 1 2 0 23.61339577542409 0.6113374414472427 2.19363379203562 0 0 0
221 1 2 0 22.362934982053456 2.67633940629795 2.1537920206004073 0 0 0
222 1 2 0 23.598094597776896 1.9931325261343904 2.2391409618525326 0 0 0
251 1 2 0 23.58772184013053 4.7964572684907445 2.08119312603603 0 0 0
252 1 2 0 22.3549671222868 4.097578350435008 2.0552128476965326 0 0 0
295 1 2 0 17.500030818065873 6.962559218580589 1.7787427559703588 0 0 0
296 1 2 0 18.72029745905033 6.2500713365935905 1.9087918348120705 0 0 0
297 1 2 0 19.958501479704733 6.955907008510898 2.003122697241692 0 0 0
298 1 2 0 21.17624289253088 6.229200198705423 2.084580949284313 0 0 0
299 1 2 0 22.41759313758375 6.928787749866537 2.055404153922559 0 0 0
300 1 2 0 23.61776355919586 6.1973049672033955 2.035141492830648 0 0 0
332 1 2 0 19.978736996232914 8.378752668699335 1.9182904368568503 0 0 0
334 1 2 0 17.49576345309683 8.371926120453756 1.839838388216168 0 0 0
330 1 2 0 22.447578441643056 8.342445986605671 1.9492170750543307 0 0 0
223 1 2 0 24.839125184375963 2.7074561150477305 2.246007367707596 0 0 0
250 1 2 0 24.844107859244538 4.122917076183562 2.169877125703395 0 0 0
301 1 2 0 24.8674474234548 6.911210781021177 2.015530806011113 0 0 0
167 1 2 0 31.11468361628809 0.6231140146744696 2.2584071646103276 0 0 0
228 1 2 0 31.133868581898312 2.045325658123677 2.349082056178402 0 0 0
229 1 2 0 32.37282796124189 2.752099144805073 2.3318647457120756 0 0 0
244 1 2 0 32.37028428201879 4.190327709550416 2.2445728688629845 0 0 0
245 1 2 0 31.12977014345661 4.9037462652493815 2.243561120735129 0 0 0
169 1 2 0 28.62800277805705 0.6483824656488101 2.2257108953126092 0 0 0
171 1 2 0 26.096745819036297 0.6620965647555623 2.228327445801836 0 0 0
224 1 2 0 26.08158021265065 2.0501234277967377 2.2979562733319403 0 0 0
225 1 2 0 27.348062635866874 2.7424313565160565 2.3105909393210258 0 0 0
226 1 2 0 28.626041747544182 2.0466804873407205 2.3192614591144975 0 0 0
227 1 2 0 29.89603146235582 2.762504674059461 2.31107930634079 0 0 0
246 1 2 0 29.8907528526173 4.194448749367054 2.2867822563688014 0 0 0
247 1 2 0 28.61693695141917 4.889323304851752 2.2750821546403226 0 0 0
248 1 2 0 27.36405991843665 4.162226619646542 2.2474248081819046 0 0 0
249 1 2 0 26.10945426852373 4.828885833626506 2.1544157579086103 0 0 0
306 1 2 0 31.14120141372232 6.314417198446516 2.160029962994722 0 0 0
307 1 2 0 32.37707091322736 7.027351955797054 2.0556570647960166 0 0 0
302 1 2 0 26.11889075454085 6.223667659709256 2.101576168317425 0 0 0
303 1 2 0 27.38699150729741 6.965660586180486 2.1811243497593296 0 0 0
304 1 2 0 28.633723290875555 6.288756105426136 2.2170645223543657 0 0 0
305 1 2 0 29.88788961984299 7.019781961225815 2.2130898480981713 0 0 0
328 1 2 0 24.901469796873233 8.328911705333978 2.044690894916337 0 0 0
326 1 2 0 27.38339467956383 8.383690295339244 2.171192501299984 0 0 0
324 1 2 0 29.882468875888474 8.446734398244685 2.130202393850041 0 0 0
163 1 2 0 36.063249977215065 0.5735594309145149 2.6687637272069167 0 0 0
165 1 2 0 33.58331636190179 0.5997776207094933 2.4533970426592684 0 0 0
230 1 2 0 33.59483169911371 2.031960052167945 2.4837191866534405 0 0 0
231 1 2 0 34.830927317528655 2.7329651532608445 2.513207520014925 0 0 0
232 1 2 0 36.06154727018362 2.0104388002208844 2.731728132062759 0 0 0
233 1 2 0 37.28928153986495 2.712357437914773 2.782696125482206 0 0 0
240 1 2 0 37.28694228889705 4.132447350689329 2.556673627561768 0 0 0
241 1 2 0 36.05596224440739 4.83692596046046 2.31026270621617 0 0 0
242 1 2 0 34.828901604991415 4.143907656671156 2.2929987295321212 0 0 0
243 1 2 0 33.60766896464074 4.88432848856813 2.1728711018603346 0 0 0
161 1 2 0 38.509956177025025 0.5394143492710292 2.9414495154552203 0 0 0
234 1 2 0 38.516725448881076 1.9819893292966817 2.917272538992669 0 0 0
235 1 2 0 39.74985643212626 2.683145313448515 2.8594408393301767 0 0 0
236 1 2 0 40.97388903141171 1.941119591204553 2.8629465679943813 0 0 0
237 1 2 0 40.984018232926545 0.5031545647878428 2.9267462036837086 0 0 0
238 1 2 0 39.72708088450739 4.1096347822566015 2.7193743108935324 0 0 0
239 1 2 0 38.50548438527149 4.8335957368842015 2.5457306610000066 0 0 0
315 1 2 0 40.944335489539824 4.7890794826228476 2.603898801388429 0 0 0
308 1 2 0 33.60970527393982 6.2919523475494 2.0308699649402167 0 0 0
309 1 2 0 34.846924664654416 6.982566510705124 1.9239005667472737 0 0 0
310 1 2 0 36.07514985385064 6.25849100598889 2.0733901259588183 0 0 0
311 1 2 0 37.320907582905726 6.954280497056955 2.10861199066725 0 0 0
312 1 2 0 38.53293491544507 6.246989952494204 2.308761418581436 0 0 0
313 1 2 0 39.76944329195487 6.935433351144084 2.3197338974901203 0 0 0
314 1 2 0 40.92610551695458 6.212602881947251 2.6306875432583667 0 0 0
316 1 2 0 39.78455145431627 8.364321982619705 2.177997605927101 0 0 0
51 1 2 0 43.376458169757015 4.758752248576762 2.6126819509312904 0 0 0
52 1 1 0 44.00264428093531 4.391616825540324 2.4987749256289633 0 0 0
53 1 2 0 42.16846377788504 4.065886591953095 2.5866343178690396 0 0 0
54 1 2 0 42.15672343121941 2.642305329540968 2.717779528534566 0 0 0
55 1 2 0 43.36768462235091 1.8584091982217672 2.6382636431400273 0 0 0
56 1 1 0 44.00464865361945 2.2043305666662767 2.5230190291068926 0 0 0
57 1 2 0 43.357261229317444 0.44361974500356066 2.680793042467594 0 0 0
58 1 1 0 43.97578158051347 0.08169904988017325 2.455839497515095 0 0 0
48 1 2 0 42.147161485693765 6.903586048008534 2.7902854486182487 0 0 0
49 1 2 0 43.3618286871708 6.16357456014804 2.764497279557462 0 0 0
50 1 1 0 44.00313206631389 6.503775152961596 2.875124489304799 0 0 0
47 1 2 0 42.2056473641362 8.341117862424577 2.6728301758067796 0 0 0
351 1 2 0 -3.389411674724003 8.98798918339832 2.526896729736323 0 0 0
353 1 1 0 -5.236338754594363 8.644988569201915 2.744055997052436 0 0 0
356 1 2 0 -3.3956428500478855 10.424325254906815 2.4246328130779116 0 0 0
429 1 2 0 -3.3790568278296917 13.273394522875163 2.3446399282820614 0 0 0
430 1 2 0 -4.5887875541008425 12.563840209452394 2.2934247295556935 0 0 0
431 1 1 0 -5.2349058891442795 12.927188559146408 2.2094629573500977 0 0 0
432 1 2 0 -4.6086060750202 11.1675993401495 2.340366123400699 0 0 0
433 1 1 0 -5.244654263520542 10.81586274485317 2.329044264864583 0 0 0
349 1 2 0 -0.9279825380705227 8.95794326325368 2.3195855332353696 0 0 0
357 1 2 0 -2.17689935837916 11.119994558433511 2.379619334281754 0 0 0
358 1 2 0 -0.9531365574318225 10.394620882762483 2.274195893568195 0 0 0
427 1 2 0 -0.920157377161032 13.277486439046568 2.361418091582218 0 0 0
428 1 2 0 -2.1595739381845753 12.552953804476827 2.321528185569604 0 0 0
434 1 2 0 -3.3698703892729167 14.693410959886576 2.4491226325695146 0 0 0
510 1 2 0 -4.576676768818722 15.446423001754807 2.594585928235551 0 0 0
511 1 1 0 -5.230639397172531 15.093961377418312 2.670856841072356 0 0 0
435 1 2 0 -2.132089638816073 15.406609228564642 2.45385190318675 0 0 0
436 1 2 0 -0.8921369839215356 14.69731258366069 2.3846500843129776 0 0 0
345 1 2 0 3.969580901472472 9.038260903882534 1.6530677829038594 0 0 0
347 1 2 0 1.5019212262629524 8.97460445116265 1.9619748658010512 0 0 0
359 1 2 0 0.28888040618177524 11.129419180737916 2.156154437031664 0 0 0
360 1 2 0 1.5112011963315706 10.418049716574833 2.03113454765905 0 0 0
361 1 2 0 2.753198858562948 11.145963641205018 2.012757562996875 0 0 0
362 1 2 0 3.9603767880969936 10.466019923605483 1.7517525452683596 0 0 0
423 1 2 0 4.024622864340706 13.323809982757174 2.019162819300095 0 0 0
424 1 2 0 2.774393418279903 12.582012280005992 2.1161283457507456 0 0 0
425 1 2 0 1.5496989939674912 13.274642850161502 2.2492941570559295 0 0 0
426 1 2 0 0.3006927598019024 12.562273035734263 2.2743842443951814 0 0 0
343 1 2 0 6.385000258537787 9.052163137594087 1.2107715504276158 0 0 0
363 1 2 0 5.185030830295114 11.213614127752903 1.6137634500922509 0 0 0
364 1 2 0 6.39506201586421 10.453581705964245 1.4452656712673344 0 0 0
365 1 2 0 7.612203459427337 11.167830437120527 1.5390326321080416 0 0 0
420 1 2 0 7.618354543357532 12.603998247350006 1.6957606385849777 0 0 0
421 1 2 0 6.420160702366405 13.340032774034864 1.803894045515236 0 0 0
422 1 2 0 5.224992015322636 12.647401565360356 1.7917478263816482 0 0 0
437 1 2 0 0.3447727171364449 15.395351975986989 2.328163367213496 0 0 0
438 1 2 0 1.555760189897687 14.693991069634755 2.278726302646945 0 0 0
439 1 2 0 2.7924599068897757 15.408142897572617 2.1889673447303175 0 0 0
440 1 2 0 4.032929181979485 14.739874851854761 2.1308207029000554 0 0 0
441 1 2 0 5.239702633066503 15.458205249834332 2.0156797908009887 0 0 0
442 1 2 0 6.469022737177244 14.769428496055031 1.8902956621130507 0 0 0
443 1 2 0 7.673413124135808 15.500469547949558 1.808964182431306 0 0 0
339 1 2 0 11.26411108267737 9.046040959930902 1.6222142197155602 0 0 0
341 1 2 0 8.823653549572878 9.04587936431684 1.307404993725737 0 0 0
366 1 2 0 8.806254288686313 10.476350954216683 1.47433682271258 0 0 0
367 1 2 0 10.028137263974456 11.197565723611074 1.6081091350544912 0 0 0
368 1 2 0 11.25979810327612 10.47761450275134 1.6590383974045748 0 0 0
369 1 2 0 12.495739858121532 11.174137604600137 1.7664403775828745 0 0 0
416 1 2 0 12.495859250915853 12.603896725679483 1.836837986766799 0 0 0
417 1 2 0 11.273026762100816 13.339533807673854 1.7793560277384475 0 0 0
418 1 2 0 10.041104439542224 12.627040886709123 1.68900511071855 0 0 0
419 1 2 0 8.849058993965793 13.355419376867578 1.6687867491072879 0 0 0
335 1 2 0 16.236116980524105 9.092548768770326 1.821922569068652 0 0 0
337 1 2 0 13.73942926777089 9.048847519151568 1.7520608566561693 0 0 0
370 1 2 0 13.741573684865454 10.466701077197108 1.838308047176151 0 0 0
371 1 2 0 14.988420089597115 11.187320317200868 1.9731812880252806 0 0 0
372 1 2 0 16.22531304591342 10.487829187782852 1.8787327759846337 0 0 0
413 1 2 0 16.26591378904371 13.28994478377153 1.973517893314789 0 0 0
414 1 2 0 15.007020176592018 12.617422946644997 1.9899262627894492 0 0 0
415 1 2 0 13.76756226197742 13.322036170543832 1.827613985774204 0 0 0
444 1 2 0 8.882273761232234 14.79688990473165 1.7127801925329649 0 0 0
445 1 2 0 10.098287560571558 15.535700836882398 1.711037629742329 0 0 0
446 1 2 0 11.302541035932238 14.770385304845806 1.6883648735088337 0 0 0
447 1 2 0 12.567079467048305 15.480940113908918 1.7209937802684383 0 0 0
448 1 2 0 13.803995773997073 14.755333763794342 1.7573738856704546 0 0 0
449 1 2 0 15.087138634297528 15.429563733948047 1.786704615657221 0 0 0
450 1 2 0 16.291605311100636 14.695041968381565 1.8533461513188154 0 0 0
331 1 2 0 21.22314035793216 9.058290062325836 1.8815516301363548 0 0 0
333 1 2 0 18.73138900359785 9.074085423123039 1.8795284829520935 0 0 0
373 1 2 0 17.48213425713304 11.16598027263564 1.8952220381109484 0 0 0
374 1 2 0 18.727539943502098 10.469030277485023 1.8526548699713088 0 0 0
375 1 2 0 19.981788330908927 11.175147282341747 1.8761004653614681 0 0 0
376 1 2 0 21.22720313977868 10.466008105944573 1.9181363344036753 0 0 0
409 1 2 0 21.198883191742652 13.278185607906027 2.088388797592621 0 0 0
410 1 2 0 19.983395777213854 12.571938470233679 1.9410234028574687 0 0 0
411 1 2 0 18.744758569067333 13.286154829261822 1.8981823648384033 0 0 0
412 1 2 0 17.498373818021644 12.584039000493261 1.9727812989229585 0 0 0
329 1 2 0 23.681553226936384 9.048811099509415 2.0380657065757597 0 0 0
377 1 2 0 22.459930082108645 11.16893554737097 2.065364509484322 0 0 0
378 1 2 0 23.68967754300774 10.47453770142829 2.0916493624684565 0 0 0
407 1 2 0 23.65212316680391 13.31508521834998 2.2782557959877554 0 0 0
408 1 2 0 22.44332211417489 12.581436963523513 2.153748664305873 0 0 0
451 1 2 0 17.537386139805324 15.410372651804815 1.7963140200740482 0 0 0
452 1 2 0 18.753292226716546 14.700577960336377 1.9121296826515997 0 0 0
453 1 2 0 19.978060977592655 15.41656409290487 1.9900820918891897 0 0 0
454 1 2 0 21.18010418037896 14.707920344129976 2.158737006045975 0 0 0
455 1 2 0 22.41911370253047 15.47131394174843 2.298667967620681 0 0 0
456 1 2 0 23.636203614354812 14.772273223921273 2.284526297682689 0 0 0
486 1 2 0 22.4296402068374 16.923295374704917 2.301160866945139 0 0 0
379 1 2 0 24.911861629422233 11.194327437098318 2.141226354581959 0 0 0
406 1 2 0 24.89159334854616 12.629815339426449 2.185510493183727 0 0 0
457 1 2 0 24.868243097693142 15.49399245031461 2.254173352203508 0 0 0
322 1 2 0 32.366064176234104 8.437405913365094 1.9885460959018313 0 0 0
323 1 2 0 31.12240813922398 9.159535783720024 2.028895201784047 0 0 0
384 1 2 0 31.128146833573172 10.557136287368287 2.1053354296785223 0 0 0
385 1 2 0 32.37421389132391 11.25445656670953 2.1779100405197114 0 0 0
400 1 2 0 32.375657717816686 12.663579506751695 2.2220393049199054 0 0 0
401 1 2 0 31.11013097362123 13.35483995651702 2.1630535929918007 0 0 0
325 1 2 0 28.626013622658657 9.11860696182169 2.1689380112883594 0 0 0
327 1 2 0 26.135756376357595 9.052471791602834 2.12361551926392 0 0 0
380 1 2 0 26.128266815064418 10.483583740888237 2.1292718371514727 0 0 0
381 1 2 0 27.3805840081469 11.2094886058099 2.1290672318839694 0 0 0
382 1 2 0 28.62527869959082 10.525887262477646 2.139081296940782 0 0 0
383 1 2 0 29.86226036134735 11.251113834332928 2.086919696130246 0 0 0
402 1 2 0 29.872032690012922 12.656984189669432 2.1049327657593815 0 0 0
403 1 2 0 28.590807096553007 13.36728960935508 2.1127439191620443 0 0 0
404 1 2 0 27.366558581479765 12.62795494537254 2.1162879396050007 0 0 0
405 1 2 0 26.118153139258517 13.348881168438648 2.1694405782655717 0 0 0
462 1 2 0 31.084575605601664 14.736276729596144 2.083492306644907 0 0 0
463 1 2 0 32.31738670486859 15.430754220916986 2.1216299481276346 0 0 0
458 1 2 0 26.100734519522362 14.778479810561686 2.206171234760709 0 0 0
459 1 2 0 27.325594645019386 15.49959059987249 2.158899817751848 0 0 0
460 1 2 0 28.566085864853918 14.792036587369623 2.1168230707889593 0 0 0
461 1 2 0 29.816667642634204 15.468570130124727 2.0875242936667955 0 0 0
318 1 2 0 37.32340591992355 8.371411363223984 1.9692248848018827 0 0 0
320 1 2 0 34.85005834255534 8.400354155949826 1.8161002045139967 0 0 0
319 1 2 0 36.093200861782705 9.091406564572017 1.8339734167954802 0 0 0
321 1 2 0 33.62629757489418 9.129056394255171 1.9499671018129876 0 0 0
386 1 2 0 33.62512474054265 10.543101143663536 2.0438388210927787 0 0 0
387 1 2 0 34.86106556351487 11.22300990728387 1.9905925264572986 0 0 0
388 1 2 0 36.089939260679806 10.49650179934619 1.8747704522499429 0 0 0
389 1 2 0 37.32570364887954 11.176743481884216 2.0613859182621592 0 0 0