LAMMPS data file via write_data, version 2 Aug 2023, timestep = 51400, units = real

69 atoms
3 atom types
156 bonds
3 bond types
183 angles
3 angle types
360 dihedrals
2 dihedral types

-25 25 xlo xhi
-25 25 ylo yhi
-25 25 zlo zhi

Masses

1 12.011
2 1.008
3 15.9994

Pair Coeffs # lj/cut/coul/long

1 0.0734574 3.52053
2 0 0
3 0.119432 3.40025

Bond Coeffs # harmonic

1 399.904 1.39
2 0 0
3 442.161 0.972

Angle Coeffs # harmonic

1 55.1272 109.5
2 50.1166 120
3 47.5559 103

Dihedral Coeffs # harmonic

1 9.99044 -1 2
2 0 1 1

Atoms # full

48 1 1 0 -0.32680844009662374 -3.3072112596173784 0.9892806400833387 0 0 0
53 1 1 0 -3.667529849524216 0.19957512565865182 0.2824584705307274 0 0 0
15 1 1 0 -0.3000681164848044 -0.9619260905048416 -3.250144626629019 0 0 0
18 1 1 0 0.5340515881860299 -3.510429658490882 -1.2939606433190818 0 0 0
19 1 1 0 -0.7171655549767773 -3.6908394431463516 -0.40075805902193934 0 0 0
9 1 1 0 1.4976636423436849 0.6026711594092865 -3.040549804346034 0 0 0
8 1 1 0 0.7229327832793326 1.7983460039724108 -2.9251170342140838 0 0 0
17 1 1 0 0.6559916804178758 -2.729536050994567 -2.571296305823006 0 0 0
23 1 1 0 -2.233338943725822 -0.03529872465245913 -2.234839418674956 0 0 0
6 1 1 0 2.6685273490087176 2.404978146165996 -1.6670060269472047 0 0 0
24 1 1 0 -2.5372073680037746 1.3075578242339623 -1.4985002770537021 0 0 0
5 1 1 0 2.956293803554047 2.402398511552884 -0.19469642193290446 0 0 0
26 1 1 0 -0.7874572140286311 1.564299391719704 -2.8733283020286344 0 0 0
27 1 1 0 -1.160634226991613 -0.02979947109814915 -3.0678794081708687 0 0 0
25 1 1 0 -1.6487830708079207 2.2176684243745095 -1.891289215029122 0 0 0
13 1 1 0 1.660731537125972 -1.7408038665368113 -2.785863693629446 0 0 0
35 1 1 0 2.79096670732542 1.340770036852585 1.8560439557802229 0 0 0
7 1 1 0 1.304096571057911 2.9965192143132247 -2.2141726660909704 0 0 0
32 1 1 0 0.28757964747939996 3.5077690873098164 -1.192566633921322 0 0 0
14 1 1 0 1.0389524260580691 -0.6470712308186706 -3.1507608916238437 0 0 0
31 1 1 0 0.5142355407883056 3.4904097918062793 0.3143212312555025 0 0 0
33 1 1 0 1.898493089226359 2.952725859583064 0.7078559785501487 0 0 0
49 1 1 0 1.5889257066670899 -3.432919386912022 -0.3155375068741064 0 0 0
2 1 1 0 3.0668902523222346 -1.375137024599676 0.3731669305056072 0 0 0
10 1 1 0 2.7747239527644623 1.0493652590790534 -2.2865071900577894 0 0 0
11 1 1 0 3.1293757053854945 -0.13476964857438709 -1.5040150834792327 0 0 0
12 1 1 0 2.6037906937697906 -1.4865418167769644 -1.9009468100055305 0 0 0
16 1 1 0 -0.7764237627222828 -2.2191347748945747 -2.918854346726096 0 0 0
21 1 1 0 -1.9532385012120754 -2.3377960582816417 -2.0058670494435367 0 0 0
34 1 1 0 1.8390200490807962 2.2395781933440575 1.946685213533215 0 0 0
37 1 1 0 1.1776745884104347 -0.17326717936497343 3.007692410486787 0 0 0
38 1 1 0 0.3273945687043342 0.8565563644862393 3.346224998376727 0 0 0
41 1 1 0 -2.7231702791699237 -1.0456474205714184 2.3495094506056278 0 0 0
50 1 1 0 2.678627633490665 -2.3787818571721933 -0.6201772405276824 0 0 0
54 1 1 0 -3.1627554369036184 1.362876896683917 -0.22847732210817365 0 0 0
55 1 1 0 -2.6526583841911315 2.3351198355980913 0.5703148937613524 0 0 0
56 1 1 0 -2.798912572987215 1.5861904748017515 1.8486303057661726 0 0 0
57 1 1 0 -3.309539213218681 0.23441190562932565 1.6700454841797974 0 0 0
60 1 1 0 0.7302051550423536 2.146391935583423 2.7919265481689606 0 0 0
61 2 2 0.413 0.0865783775006491 -1.6140406501755111 -1.3078984123468917 0 0 0
62 2 3 -0.826 -0.13553288213353157 -1.3051581639377603 -0.5589968807364075 0 0 0
63 2 2 0.413 -0.04292775548198057 -0.4107509980239454 -0.3781536455282061 0 0 0
64 3 2 0.413 0.31473147300335313 1.1810083815664614 -1.4233116103271157 0 0 0
65 3 3 -0.826 0.8588469948036057 0.9248230168173129 -0.5081801429803054 0 0 0
66 3 2 0.413 0.2564811833649902 1.4013555269579743 0.07268696556595344 0 0 0
67 4 2 0.413 -0.6922520575244179 -0.5355206760804699 1.6676819919737509 0 0 0
68 4 3 -0.826 -0.6861276004557396 0.2937405498126175 1.121405060702499 0 0 0
69 4 2 0.413 -0.5318642350479859 -0.22517406404065066 0.5914880106461022 0 0 0
28 1 1 0 -1.1421275969967644 3.355804208704356 -1.1423336291019535 0 0 0
20 1 1 0 -2.020569038233597 -3.0757374231974857 -0.8370112903879076 0 0 0
39 1 1 0 -1.1039680723905676 0.5959476264534221 3.588354793828901 0 0 0
43 1 1 0 -1.0338774499957681 -2.63355418200724 1.840079143048919 0 0 0
52 1 1 0 -3.3258892618050417 -1.1386455842033978 -0.3452430292370814 0 0 0
22 1 1 0 -2.8069225227078936 -1.184150292466105 -1.7055302710212712 0 0 0
47 1 1 0 1.1834778723367798 -3.28269269286898 1.0448399360703486 0 0 0
45 1 1 0 0.9303291543513719 -1.5551525649539946 2.78876896311691 0 0 0
51 1 1 0 -2.6781841580915366 -2.2247621451378254 0.1191231376885563 0 0 0
42 1 1 0 -2.2174390802991413 -2.0764492552906333 1.4683014728933967 0 0 0
46 1 1 0 1.4917700518891592 -2.140615430678672 1.847300493387239 0 0 0
58 1 1 0 -1.6926142690793797 1.9254497243163031 2.9946677072175385 0 0 0
1 1 1 0 2.4155536867858274 -1.1331421745224795 1.5819497736472758 0 0 0
36 1 1 0 2.5523878613994317 -0.0011214498267059746 2.3147581059061815 0 0 0
59 1 1 0 -0.651413719063192 2.6070758186990988 2.4644729961628613 0 0 0
29 1 1 0 -1.5824854096383143 3.1446319922041366 0.2130711825037146 0 0 0
30 1 1 0 -0.4893719452234214 3.2670300982231977 1.0875102336045177 0 0 0
4 1 1 0 3.2609147069092543 1.1603968235811177 0.4956789634397152 0 0 0
3 1 1 0 3.40700350266457 -0.15926418874390386 -0.174452430304882 0 0 0
40 1 1 0 -1.6810504548484297 -0.8958631261625668 3.43989434547563 0 0 0
44 1 1 0 -0.5053812720310088 -1.7820873439411777 2.8877704253860603 0 0 0

Bonds

1 2 48 51
2 1 53 54
3 1 53 57
4 1 15 16
5 1 15 27
6 2 15 22
7 1 18 19
8 1 18 49
9 2 18 21
10 1 19 20
11 1 19 48
12 2 19 42
13 1 9 10
14 1 9 14
15 2 9 12
16 2 9 27
17 1 8 9
18 1 8 26
19 2 8 15
20 2 8 28
21 1 17 18
22 2 17 20
23 2 17 50
24 1 23 24
25 1 23 27
26 2 23 53
27 1 6 7
28 1 6 10
29 2 6 31
30 1 24 25
31 1 24 54
32 2 24 29
33 2 24 52
34 1 5 6
35 1 5 33
36 2 5 11
37 2 5 32
38 1 26 27
39 2 26 32
40 1 25 26
41 1 25 28
42 2 25 55
43 1 13 14
44 1 13 17
45 2 13 49
46 1 35 36
47 2 35 38
48 1 7 8
49 1 7 32
50 2 7 25
51 2 7 33
52 1 14 15
53 2 14 26
54 1 31 32
55 1 31 33
56 2 31 60
57 1 33 34
58 2 33 59
59 1 49 50
60 1 2 3
61 1 2 50
62 2 2 35
63 2 2 47
64 1 10 11
65 2 10 13
66 1 11 12
67 2 11 14
68 1 12 13
69 1 12 50
70 2 12 18
71 1 16 17
72 1 16 21
73 2 16 19
74 2 16 23
75 1 21 22
76 2 21 27
77 1 34 35
78 1 34 60
79 2 34 37
80 1 37 38
81 1 37 45
82 2 37 40
83 1 38 39
84 1 38 60
85 2 38 44
86 1 41 42
87 1 41 57
88 2 41 52
89 2 41 58
90 1 54 55
91 1 55 56
92 2 55 59
93 1 56 57
94 1 56 58
95 3 61 62
96 3 62 63
97 3 64 65
98 3 65 66
99 3 67 68
100 3 68 69
101 1 28 29
102 1 28 32
103 2 28 54
104 1 20 21
105 1 20 51
106 2 20 43
107 1 39 40
108 1 39 58
109 2 39 45
110 2 39 57
111 1 43 44
112 1 43 48
113 2 43 46
114 1 52 53
115 1 22 23
116 1 22 52
117 2 22 54
118 1 47 48
119 1 47 49
120 1 45 46
121 2 45 48
122 1 51 52
123 2 51 57
124 1 42 43
125 1 42 51
126 2 42 53
127 1 46 47
128 2 46 50
129 1 58 59
130 1 1 2
131 1 1 36
132 1 1 46
133 2 1 4
134 2 1 49
135 1 36 37
136 2 36 60
137 1 59 60
138 1 29 30
139 1 29 55
140 2 29 58
141 1 30 31
142 1 30 59
143 2 30 34
144 2 30 56
145 1 4 5
146 1 4 35
147 2 4 10
148 1 3 4
149 1 3 11
150 2 3 6
151 2 3 36
152 1 40 41
153 1 40 44
154 2 40 56
155 1 44 45
156 2 44 47

Angles

1 2 19 48 43
2 1 19 48 47
3 2 43 48 47
4 2 52 53 54
5 2 52 53 57
6 1 54 53 57
7 1 14 15 16
8 2 14 15 27
9 2 16 15 27
10 2 17 18 19
11 2 17 18 49
12 1 19 18 49
13 2 18 19 20
14 1 18 19 48
15 2 20 19 48
16 1 8 9 10
17 2 8 9 14
18 2 10 9 14
19 1 7 8 9
20 2 7 8 26
21 2 9 8 26
22 1 13 17 16
23 2 13 17 18
24 2 16 17 18
25 2 22 23 24
26 2 22 23 27
27 1 24 23 27
28 2 5 6 7
29 2 5 6 10
30 1 7 6 10
31 1 23 24 25
32 2 23 24 54
33 2 25 24 54
34 2 4 5 6
35 1 4 5 33
36 2 6 5 33
37 2 8 26 25
38 2 8 26 27
39 1 25 26 27
40 2 15 27 23
41 2 15 27 26
42 1 23 27 26
43 1 24 25 26
44 2 24 25 28
45 2 26 25 28
46 2 12 13 14
47 2 12 13 17
48 1 14 13 17
49 1 4 35 34
50 2 4 35 36
51 2 34 35 36
52 1 6 7 8
53 2 6 7 32
54 2 8 7 32
55 2 7 32 28
56 2 7 32 31
57 1 28 32 31
58 2 9 14 13
59 2 9 14 15
60 1 13 14 15
61 1 30 31 32
62 2 30 31 33
63 2 32 31 33
64 2 5 33 31
65 1 5 33 34
66 2 31 33 34
67 1 18 49 47
68 2 18 49 50
69 2 47 49 50
70 2 1 2 3
71 2 1 2 50
72 1 3 2 50
73 1 6 10 9
74 2 6 10 11
75 2 9 10 11
76 2 3 11 10
77 1 3 11 12
78 2 10 11 12
79 2 11 12 13
80 1 11 12 50
81 2 13 12 50
82 1 15 16 17
83 2 15 16 21
84 2 17 16 21
85 2 16 21 20
86 2 16 21 22
87 1 20 21 22
88 1 33 34 35
89 2 33 34 60
90 2 35 34 60
91 2 36 37 38
92 1 36 37 45
93 2 38 37 45
94 2 37 38 39
95 2 37 38 60
96 1 39 38 60
97 1 40 41 42
98 2 40 41 57
99 2 42 41 57
100 1 2 50 12
101 2 2 50 49
102 2 12 50 49
103 2 24 54 53
104 2 24 54 55
105 1 53 54 55
106 2 29 55 54
107 2 29 55 56
108 1 54 55 56
109 1 55 56 57
110 2 55 56 58
111 2 57 56 58
112 2 41 57 53
113 2 41 57 56
114 1 53 57 56
115 2 34 60 38
116 2 34 60 59
117 1 38 60 59
118 3 61 62 63
119 3 64 65 66
120 3 67 68 69
121 2 25 28 29
122 2 25 28 32
123 1 29 28 32
124 2 19 20 21
125 2 19 20 51
126 1 21 20 51
127 2 38 39 40
128 1 38 39 58
129 2 40 39 58
130 1 42 43 44
131 2 42 43 48
132 2 44 43 48
133 1 22 52 51
134 2 22 52 53
135 2 51 52 53
136 2 21 22 23
137 1 21 22 52
138 2 23 22 52
139 2 46 47 48
140 2 46 47 49
141 1 48 47 49
142 2 37 45 44
143 1 37 45 46
144 2 44 45 46
145 2 20 51 42
146 1 20 51 52
147 2 42 51 52
148 1 41 42 43
149 2 41 42 51
150 2 43 42 51
151 1 1 46 45
152 2 1 46 47
153 2 45 46 47
154 2 39 58 56
155 1 39 58 59
156 2 56 58 59
157 2 2 1 36
158 2 2 1 46
159 1 36 1 46
160 2 1 36 35
161 1 1 36 37
162 2 35 36 37
163 2 30 59 58
164 2 30 59 60
165 1 58 59 60
166 1 28 29 30
167 2 28 29 55
168 2 30 29 55
169 1 29 30 31
170 2 29 30 59
171 2 31 30 59
172 2 3 4 5
173 2 3 4 35
174 1 5 4 35
175 2 2 3 4
176 1 2 3 11
177 2 4 3 11
178 2 39 40 41
179 2 39 40 44
180 1 41 40 44
181 1 40 44 43
182 2 40 44 45
183 2 43 44 45

Dihedrals

1 2 19 48 43 42
2 2 19 48 43 44
3 2 19 48 47 46
4 2 43 48 47 46
5 1 19 48 47 49
6 2 43 48 47 49
7 2 52 53 54 55
8 2 52 53 57 56
9 1 54 53 57 56
10 2 14 15 16 17
11 2 14 15 16 21
12 2 14 15 27 23
13 2 14 15 27 26
14 1 16 15 27 23
15 2 16 15 27 26
16 2 17 18 19 20
17 2 17 18 19 48
18 2 17 18 49 47
19 2 17 18 49 50
20 1 19 18 49 47
21 2 19 18 49 50
22 2 18 19 20 21
23 2 18 19 20 51
24 2 18 19 48 43
25 1 18 19 48 47
26 2 20 19 48 43
27 2 20 19 48 47
28 1 48 19 20 51
29 2 20 19 18 49
30 1 48 19 18 49
31 2 8 9 10 11
32 2 8 9 14 13
33 2 8 9 14 15
34 1 10 9 14 13
35 2 10 9 14 15
36 2 10 9 8 26
37 1 14 9 8 26
38 2 7 8 9 10
39 2 7 8 9 14
40 2 7 8 26 25
41 2 7 8 26 27
42 2 9 8 26 25
43 1 9 8 26 27
44 2 9 8 7 32
45 1 26 8 7 32
46 2 13 17 18 19
47 1 13 17 18 49
48 2 13 17 16 15
49 2 16 17 18 19
50 2 16 17 18 49
51 2 13 17 16 21
52 1 18 17 16 21
53 2 22 23 24 25
54 1 22 23 24 54
55 2 22 23 27 26
56 1 24 23 27 26
57 2 27 23 24 54
58 1 24 23 22 52
59 2 27 23 22 52
60 2 5 6 7 8
61 1 5 6 7 32
62 2 5 6 10 9
63 1 5 6 10 11
64 2 7 6 10 9
65 2 7 6 10 11
66 2 10 6 7 32
67 2 7 6 5 33
68 2 10 6 5 33
69 2 23 24 25 26
70 2 23 24 25 28
71 1 23 24 54 53
72 2 23 24 54 55
73 2 25 24 54 53
74 2 25 24 54 55
75 2 25 24 23 27
76 2 4 5 6 7
77 1 4 5 6 10
78 2 4 5 33 31
79 1 4 5 33 34
80 2 6 5 33 31
81 2 6 5 33 34
82 2 6 5 4 35
83 1 33 5 4 35
84 2 8 26 27 15
85 2 8 26 27 23
86 2 8 26 25 24
87 2 8 26 25 28
88 2 27 26 25 28
89 2 15 27 23 22
90 2 15 27 23 24
91 2 15 27 26 25
92 1 23 27 26 25
93 1 24 25 26 27
94 1 24 25 28 29
95 2 24 25 28 32
96 2 26 25 28 29
97 2 26 25 28 32
98 2 26 25 24 54
99 1 28 25 24 54
100 2 12 13 14 15
101 2 12 13 17 16
102 1 12 13 17 18
103 2 14 13 17 16
104 2 14 13 17 18
105 2 14 13 12 50
106 1 17 13 12 50
107 2 4 35 36 37
108 2 4 35 34 33
109 2 34 35 36 37
110 2 4 35 34 60
111 1 36 35 34 60
112 2 6 7 8 9
113 2 6 7 8 26
114 2 6 7 32 28
115 1 6 7 32 31
116 2 8 7 32 28
117 2 8 7 32 31
118 2 8 7 6 10
119 2 7 32 28 25
120 2 7 32 28 29
121 2 7 32 31 30
122 1 28 32 31 30
123 2 7 32 31 33
124 2 28 32 31 33
125 2 9 14 15 16
126 2 9 14 15 27
127 2 9 14 13 12
128 1 13 14 15 16
129 2 13 14 15 27
130 2 9 14 13 17
131 1 15 14 13 17
132 1 30 31 33 34
133 2 32 31 33 34
134 2 32 31 30 59
135 1 33 31 30 59
136 1 5 33 34 35
137 2 5 33 34 60
138 2 5 33 31 30
139 2 31 33 34 35
140 2 31 33 34 60
141 2 5 33 31 32
142 2 18 49 47 46
143 1 18 49 47 48
144 2 1 2 3 4
145 2 1 2 3 11
146 2 1 2 50 12
147 1 1 2 50 49
148 2 3 2 50 12
149 2 3 2 50 49
150 2 3 2 1 36
151 2 3 2 1 46
152 2 6 10 11 12
153 2 6 10 9 8
154 2 9 10 11 12
155 2 6 10 9 14
156 1 11 10 9 14
157 2 3 11 12 13
158 1 3 11 12 50
159 1 3 11 10 6
160 2 3 11 10 9
161 2 10 11 12 13
162 2 10 11 12 50
163 2 11 12 13 14
164 2 11 12 13 17
165 2 11 12 50 49
166 2 13 12 50 49
167 2 15 16 17 18
168 2 15 16 21 20
169 2 15 16 21 22
170 1 17 16 21 20
171 2 17 16 21 22
172 2 17 16 15 27
173 1 21 16 15 27
174 2 16 21 22 23
175 2 16 21 22 52
176 2 16 21 20 19
177 2 20 21 22 23
178 1 20 21 22 52
179 2 16 21 20 51
180 1 22 21 20 51
181 2 33 34 35 36
182 2 33 34 60 38
183 2 33 34 60 59
184 1 35 34 60 38
185 2 35 34 60 59
186 2 36 37 38 39
187 2 36 37 38 60
188 2 36 37 45 44
189 1 36 37 45 46
190 2 38 37 45 44
191 2 38 37 45 46
192 2 45 37 38 60
193 2 37 38 39 40
194 2 37 38 39 58
195 2 37 38 60 59
196 1 39 38 60 59
197 1 39 38 37 45
198 2 40 41 42 43
199 2 40 41 42 51
200 2 40 41 57 53
201 1 40 41 57 56
202 2 42 41 57 53
203 2 42 41 57 56
204 2 42 41 40 44
205 1 2 50 12 11
206 2 2 50 12 13
207 2 2 50 49 18
208 2 12 50 49 18
209 1 2 50 49 47
210 2 12 50 49 47
211 2 24 54 55 29
212 2 24 54 55 56
213 2 24 54 53 52
214 1 53 54 55 56
215 2 24 54 53 57
216 1 55 54 53 57
217 2 29 55 56 57
218 2 29 55 56 58
219 2 29 55 54 53
220 1 54 55 56 57
221 2 54 55 56 58
222 2 55 56 58 59
223 2 57 56 58 59
224 2 41 57 53 52
225 2 41 57 53 54
226 2 41 57 56 55
227 1 53 57 56 55
228 2 41 57 56 58
229 2 53 57 56 58
230 2 34 60 38 37
231 2 34 60 38 39
232 2 34 60 59 58
233 1 38 60 59 58
234 2 25 28 29 30
235 2 25 28 29 55
236 2 25 28 32 31
237 1 29 28 32 31
238 2 32 28 29 55
239 2 19 20 21 22
240 2 19 20 51 42
241 2 19 20 51 52
242 2 21 20 51 42
243 1 21 20 51 52
244 2 21 20 19 48
245 2 38 39 40 41
246 1 38 39 40 44
247 2 38 39 58 56
248 1 38 39 58 59
249 2 40 39 58 56
250 2 40 39 58 59
251 2 40 39 38 60
252 1 58 39 38 60
253 2 42 43 44 45
254 2 42 43 48 47
255 1 44 43 48 47
256 2 44 43 42 51
257 1 48 43 42 51
258 2 22 52 53 54
259 2 22 52 53 57
260 2 22 52 51 42
261 2 51 52 53 54
262 1 51 52 53 57
263 2 21 22 23 24
264 2 21 22 23 27
265 1 21 22 52 51
266 2 21 22 52 53
267 2 23 22 52 51
268 2 23 22 52 53
269 2 46 47 49 50
270 2 48 47 49 50
271 2 37 45 46 47
272 2 37 45 44 40
273 2 37 45 44 43
274 2 44 45 46 47
275 1 20 51 52 22
276 2 20 51 52 53
277 2 20 51 42 41
278 2 42 51 52 53
279 1 20 51 42 43
280 2 41 42 43 44
281 2 41 42 43 48
282 2 41 42 51 52
283 2 43 42 51 52
284 2 43 42 41 57
285 1 51 42 41 57
286 2 1 46 47 48
287 2 1 46 47 49
288 1 1 46 45 37
289 2 1 46 45 44
290 1 45 46 47 48
291 2 45 46 47 49
292 1 39 58 59 60
293 2 39 58 56 55
294 2 56 58 59 60
295 1 39 58 56 57
296 2 2 1 36 35
297 2 2 1 36 37
298 2 2 1 46 45
299 2 2 1 46 47
300 2 36 1 2 50
301 1 36 1 46 45
302 2 36 1 46 47
303 1 46 1 2 50
304 2 1 36 37 38
305 1 1 36 37 45
306 1 1 36 35 4
307 2 1 36 35 34
308 2 35 36 37 38
309 2 35 36 37 45
310 2 35 36 1 46
311 1 37 36 1 46
312 2 30 59 60 34
313 2 30 59 60 38
314 2 30 59 58 39
315 2 30 59 58 56
316 2 28 29 30 31
317 2 28 29 30 59
318 2 28 29 55 54
319 2 28 29 55 56
320 2 30 29 55 54
321 1 30 29 55 56
322 1 30 29 28 32
323 1 55 29 30 59
324 2 29 30 31 32
325 2 29 30 31 33
326 2 29 30 59 58
327 2 29 30 59 60
328 2 31 30 59 58
329 1 31 30 59 60
330 2 31 30 29 55
331 2 3 4 5 6
332 2 3 4 5 33
333 2 3 4 35 34
334 1 3 4 35 36
335 2 5 4 35 34
336 2 5 4 35 36
337 2 5 4 3 11
338 2 2 3 4 5
339 1 2 3 4 35
340 2 2 3 11 10
341 1 2 3 11 12
342 2 4 3 11 10
343 2 4 3 11 12
344 2 11 3 4 35
345 2 4 3 2 50
346 1 11 3 2 50
347 2 39 40 41 42
348 1 39 40 41 57
349 2 39 40 44 43
350 1 39 40 44 45
351 2 41 40 44 43
352 2 41 40 44 45
353 2 44 40 41 57
354 2 41 40 39 58
355 2 44 40 39 58
356 2 40 44 45 46
357 2 40 44 43 42
358 1 43 44 45 46
359 2 40 44 43 48
360 1 45 44 43 48
