# LAMMPS data file 
# Created using atb2lammps 
# https://github.com/simongravelle/atb2lammps

60 atoms
150 bonds
180 angles
360 dihedrals

1 atom types
2 bond types
2 angle types
2 dihedral types

-25 25 xlo xhi
-25 25 ylo yhi
-25 25 zlo zhi

Atoms

1 1 1 0.0 -2.953972 0.5111207 -1.9141859 
2 1 1 0.0 -2.768967 -0.85301924 -2.0632343 
3 1 1 0.0 -2.9589386 -1.7466851 -0.9194347 
4 1 1 0.0 -3.323646 -1.2278469 0.31146315 
5 1 1 0.0 -2.699044 -1.735818 1.5340859 
6 1 1 0.0 -1.7434812 -2.7351506 1.4596386 
7 1 1 0.0 -0.54284185 -2.6634455 2.294089 
8 1 1 0.0 0.5848307 -3.167635 1.5085065 
9 1 1 0.0 0.08111219 -3.5508976 0.18852489 
10 1 1 0.0 -1.3578787 -3.283738 0.15834735 
11 1 1 0.0 -1.9486494 -2.8031437 -0.99808353 
12 1 1 0.0 -1.1343254 -2.5624883 -2.190531 
13 1 1 0.0 0.22677347 -2.8152943 -2.1619751 
14 1 1 0.0 0.85140747 -3.3233278 -0.9393811 
15 1 1 0.0 2.169431 -2.6992044 -0.8118138 
16 1 1 0.0 2.3594356 -1.8055497 -1.9555993 
17 1 1 0.0 1.158794 -1.8772889 -2.7900405 
18 1 1 0.0 0.679284 -0.7372546 -3.412704 
19 1 1 0.0 1.3729689 0.53973985 -3.2364697 
20 1 1 0.0 2.5086796 0.60761166 -2.4472528 
21 1 1 0.0 3.0156064 -0.5976651 -1.7889695 
22 1 1 0.0 3.5192893 -0.21434426 -0.46898872 
23 1 1 0.0 3.3396673 -1.0596645 0.6129055 
24 1 1 0.0 2.95391 -0.51111096 1.9141579 
25 1 1 0.0 2.0219424 -1.449115 2.5422862 
26 1 1 0.0 1.8315514 -2.5773368 1.6291336 
27 1 1 0.0 2.6459086 -2.3366368 0.4367127 
28 1 1 0.0 0.95531183 -0.97220683 3.2853675 
29 1 1 0.0 0.75969416 0.4699808 3.4429333 
30 1 1 0.0 -0.679283 0.73723304 3.4126635 
31 1 1 0.0 -1.3729892 -0.53976226 3.236518 
32 1 1 0.0 -0.36274257 -1.5962564 3.1577911 
33 1 1 0.0 -2.508665 -0.6075925 2.447239 
34 1 1 0.0 -3.0156221 0.59767973 1.788972 
35 1 1 0.0 -3.5192893 0.21433172 0.4689914 
36 1 1 0.0 -3.3395877 1.0596489 -0.6128822 
37 1 1 0.0 -2.6459348 2.3366814 -0.43673283 
38 1 1 0.0 -2.1694467 2.6991997 0.81180966 
39 1 1 0.0 -0.8513962 3.3232555 0.93935114 
40 1 1 0.0 -0.081105426 3.5509868 -0.18852672 
41 1 1 0.0 1.3578519 3.283653 -0.1583345 
42 1 1 0.0 1.7434708 2.7351432 -1.4596429 
43 1 1 0.0 0.54283786 2.6634424 -2.2941046 
44 1 1 0.0 -0.58481365 3.1676083 -1.5084821 
45 1 1 0.0 -1.8315319 2.5773213 -1.629138 
46 1 1 0.0 -2.021957 1.4491053 -2.542288 
47 1 1 0.0 -0.95531136 0.9722216 -3.2853665 
48 1 1 0.0 0.3627524 1.5962662 -3.1578302 
49 1 1 0.0 -0.7596866 -0.46996683 -3.4428635 
50 1 1 0.0 -1.6412593 -1.3572011 -2.8487666 
51 1 1 0.0 2.6990688 1.7358423 -1.5341015 
52 1 1 0.0 3.3236082 1.227826 -0.31146422 
53 1 1 0.0 2.9589198 1.7466824 0.9194264 
54 1 1 0.0 2.768993 0.85303247 2.063247 
55 1 1 0.0 1.6412569 1.3571819 2.8487623 
56 1 1 0.0 1.1342872 2.5624216 2.1904883 
57 1 1 0.0 1.9486958 2.803213 0.99812406 
58 1 1 0.0 -0.22678733 2.815386 2.162028 
59 1 1 0.0 -1.1587665 1.8772813 2.7900205 
60 1 1 0.0 -2.3594205 1.8055487 1.9556038 

Bonds

1 1 1 2 
2 1 1 36 
3 1 1 46 
4 1 2 3 
5 1 2 50 
6 1 3 4 
7 1 3 11 
8 1 4 5 
9 1 4 35 
10 1 5 6 
11 1 5 33 
12 1 6 7 
13 1 6 10 
14 1 7 8 
15 1 7 32 
16 1 8 9 
17 1 8 26 
18 1 9 10 
19 1 9 14 
20 1 10 11 
21 1 11 12 
22 1 12 13 
23 1 12 50 
24 1 13 14 
25 1 13 17 
26 1 14 15 
27 1 15 16 
28 1 15 27 
29 1 16 17 
30 1 16 21 
31 1 17 18 
32 1 18 19 
33 1 18 49 
34 1 19 20 
35 1 19 48 
36 1 20 21 
37 1 20 51 
38 1 21 22 
39 1 22 23 
40 1 22 52 
41 1 23 24 
42 1 23 27 
43 1 24 25 
44 1 24 54 
45 1 25 26 
46 1 25 28 
47 1 26 27 
48 1 28 29 
49 1 28 32 
50 1 29 30 
51 1 29 55 
52 1 30 31 
53 1 30 59 
54 1 31 32 
55 1 31 33 
56 1 33 34 
57 1 34 35 
58 1 34 60 
59 1 35 36 
60 1 36 37 
61 1 37 38 
62 1 37 45 
63 1 38 39 
64 1 38 60 
65 1 39 40 
66 1 39 58 
67 1 40 41 
68 1 40 44 
69 1 41 42 
70 1 41 57 
71 1 42 43 
72 1 42 51 
73 1 43 44 
74 1 43 48 
75 1 44 45 
76 1 45 46 
77 1 46 47 
78 1 47 48 
79 1 47 49 
80 1 49 50 
81 1 51 52 
82 1 52 53 
83 1 53 54 
84 1 53 57 
85 1 54 55 
86 1 55 56 
87 1 56 57 
88 1 56 58 
89 1 58 59 
90 1 59 60 
91 2 7 25 
92 2 7 33 
93 2 8 15 
94 2 8 28 
95 2 9 12 
96 2 9 27 
97 2 10 13 
98 2 6 31 
99 2 14 26 
100 2 15 22 
101 2 16 19 
102 2 16 23 
103 2 17 20 
104 2 17 50 
105 2 13 49 
106 2 25 55 
107 2 24 29 
108 2 24 52 
109 2 23 53 
110 2 26 32 
111 2 30 34 
112 2 30 56 
113 2 29 58 
114 2 28 54 
115 2 31 60 
116 2 34 37 
117 2 33 59 
118 2 5 11 
119 2 5 32 
120 2 4 10 
121 2 35 38 
122 2 3 6 
123 2 3 36 
124 2 11 14 
125 2 12 18 
126 2 2 35 
127 2 2 47 
128 2 42 53 
129 2 41 52 
130 2 41 58 
131 2 40 56 
132 2 44 47 
133 2 43 46 
134 2 39 45 
135 2 39 57 
136 2 38 44 
137 2 55 59 
138 2 21 27 
139 2 22 54 
140 2 51 57 
141 2 20 43 
142 2 18 21 
143 2 19 42 
144 2 48 51 
145 2 46 50 
146 2 45 48 
147 2 37 40 
148 2 36 60 
149 2 1 4 
150 2 1 49 

Angles

1 2 2 1 36 
2 2 2 1 46 
3 1 36 1 46 
4 2 1 2 3 
5 2 1 2 50 
6 1 3 2 50 
7 2 2 3 4 
8 1 2 3 11 
9 2 4 3 11 
10 2 3 4 5 
11 2 3 4 35 
12 1 5 4 35 
13 2 4 5 6 
14 1 4 5 33 
15 2 6 5 33 
16 2 5 6 7 
17 2 5 6 10 
18 1 7 6 10 
19 1 6 7 8 
20 2 6 7 32 
21 2 8 7 32 
22 1 7 8 9 
23 2 7 8 26 
24 2 9 8 26 
25 1 8 9 10 
26 2 8 9 14 
27 2 10 9 14 
28 1 6 10 9 
29 2 6 10 11 
30 2 9 10 11 
31 2 3 11 10 
32 1 3 11 12 
33 2 10 11 12 
34 2 11 12 13 
35 1 11 12 50 
36 2 13 12 50 
37 2 12 13 14 
38 2 12 13 17 
39 1 14 13 17 
40 2 9 14 13 
41 2 9 14 15 
42 1 13 14 15 
43 1 14 15 16 
44 2 14 15 27 
45 2 16 15 27 
46 1 15 16 17 
47 2 15 16 21 
48 2 17 16 21 
49 1 13 17 16 
50 2 13 17 18 
51 2 16 17 18 
52 2 17 18 19 
53 2 17 18 49 
54 1 19 18 49 
55 2 18 19 20 
56 1 18 19 48 
57 2 20 19 48 
58 2 19 20 21 
59 2 19 20 51 
60 1 21 20 51 
61 2 16 21 20 
62 2 16 21 22 
63 1 20 21 22 
64 2 21 22 23 
65 1 21 22 52 
66 2 23 22 52 
67 2 22 23 24 
68 2 22 23 27 
69 1 24 23 27 
70 1 23 24 25 
71 2 23 24 54 
72 2 25 24 54 
73 1 24 25 26 
74 2 24 25 28 
75 2 26 25 28 
76 2 8 26 25 
77 2 8 26 27 
78 1 25 26 27 
79 2 15 27 23 
80 2 15 27 26 
81 1 23 27 26 
82 2 25 28 29 
83 2 25 28 32 
84 1 29 28 32 
85 1 28 29 30 
86 2 28 29 55 
87 2 30 29 55 
88 1 29 30 31 
89 2 29 30 59 
90 2 31 30 59 
91 1 30 31 32 
92 2 30 31 33 
93 2 32 31 33 
94 2 7 32 28 
95 2 7 32 31 
96 1 28 32 31 
97 2 5 33 31 
98 1 5 33 34 
99 2 31 33 34 
100 1 33 34 35 
101 2 33 34 60 
102 2 35 34 60 
103 1 4 35 34 
104 2 4 35 36 
105 2 34 35 36 
106 2 1 36 35 
107 1 1 36 37 
108 2 35 36 37 
109 2 36 37 38 
110 1 36 37 45 
111 2 38 37 45 
112 2 37 38 39 
113 2 37 38 60 
114 1 39 38 60 
115 2 38 39 40 
116 1 38 39 58 
117 2 40 39 58 
118 2 39 40 41 
119 2 39 40 44 
120 1 41 40 44 
121 1 40 41 42 
122 2 40 41 57 
123 2 42 41 57 
124 1 41 42 43 
125 2 41 42 51 
126 2 43 42 51 
127 1 42 43 44 
128 2 42 43 48 
129 2 44 43 48 
130 1 40 44 43 
131 2 40 44 45 
132 2 43 44 45 
133 2 37 45 44 
134 1 37 45 46 
135 2 44 45 46 
136 1 1 46 45 
137 2 1 46 47 
138 2 45 46 47 
139 2 46 47 48 
140 2 46 47 49 
141 1 48 47 49 
142 2 19 48 43 
143 1 19 48 47 
144 2 43 48 47 
145 1 18 49 47 
146 2 18 49 50 
147 2 47 49 50 
148 1 2 50 12 
149 2 2 50 49 
150 2 12 50 49 
151 2 20 51 42 
152 1 20 51 52 
153 2 42 51 52 
154 1 22 52 51 
155 2 22 52 53 
156 2 51 52 53 
157 2 52 53 54 
158 2 52 53 57 
159 1 54 53 57 
160 2 24 54 53 
161 2 24 54 55 
162 1 53 54 55 
163 2 29 55 54 
164 2 29 55 56 
165 1 54 55 56 
166 1 55 56 57 
167 2 55 56 58 
168 2 57 56 58 
169 2 41 57 53 
170 2 41 57 56 
171 1 53 57 56 
172 2 39 58 56 
173 1 39 58 59 
174 2 56 58 59 
175 2 30 59 58 
176 2 30 59 60 
177 1 58 59 60 
178 2 34 60 38 
179 2 34 60 59 
180 1 38 60 59 

Dihedrals

1 2 1 2 3 4 
2 2 1 2 3 11 
3 2 1 2 50 12 
4 1 1 2 50 49 
5 2 1 36 37 38 
6 1 1 36 37 45 
7 2 1 46 47 48 
8 2 1 46 47 49 
9 2 2 1 36 35 
10 2 2 1 36 37 
11 2 2 1 46 45 
12 2 2 1 46 47 
13 2 2 3 4 5 
14 1 2 3 4 35 
15 2 2 3 11 10 
16 1 2 3 11 12 
17 2 3 2 50 12 
18 2 3 2 50 49 
19 2 3 4 5 6 
20 2 3 4 5 33 
21 2 3 4 35 34 
22 1 3 4 35 36 
23 2 3 11 12 13 
24 1 3 11 12 50 
25 2 4 3 11 10 
26 2 4 3 11 12 
27 2 4 5 6 7 
28 1 4 5 6 10 
29 2 4 5 33 31 
30 1 4 5 33 34 
31 1 1 36 35 4 
32 2 4 35 36 37 
33 2 5 4 35 34 
34 2 5 4 35 36 
35 2 5 6 7 8 
36 1 5 6 7 32 
37 2 5 6 10 9 
38 1 5 6 10 11 
39 1 5 33 34 35 
40 2 5 33 34 60 
41 2 6 5 33 31 
42 2 6 5 33 34 
43 2 6 7 8 9 
44 2 6 7 8 26 
45 2 6 7 32 28 
46 1 6 7 32 31 
47 1 3 11 10 6 
48 2 6 10 11 12 
49 2 7 6 10 9 
50 2 7 6 10 11 
51 2 7 8 9 10 
52 2 7 8 9 14 
53 2 7 8 26 25 
54 2 7 8 26 27 
55 2 8 7 32 28 
56 2 8 7 32 31 
57 2 6 10 9 8 
58 2 8 9 10 11 
59 2 8 9 14 13 
60 2 8 9 14 15 
61 2 8 26 27 15 
62 2 8 26 27 23 
63 2 9 8 26 25 
64 1 9 8 26 27 
65 2 3 11 10 9 
66 2 9 10 11 12 
67 2 9 14 15 16 
68 2 9 14 15 27 
69 2 8 7 6 10 
70 2 10 6 7 32 
71 1 10 9 14 13 
72 2 10 9 14 15 
73 2 10 11 12 13 
74 2 10 11 12 50 
75 2 5 4 3 11 
76 2 11 3 4 35 
77 2 11 12 13 14 
78 2 11 12 13 17 
79 1 2 50 12 11 
80 2 11 12 50 49 
81 2 9 14 13 12 
82 2 12 13 14 15 
83 2 12 13 17 16 
84 1 12 13 17 18 
85 2 2 50 12 13 
86 2 13 12 50 49 
87 1 13 14 15 16 
88 2 13 14 15 27 
89 2 13 17 18 19 
90 1 13 17 18 49 
91 2 6 10 9 14 
92 1 11 10 9 14 
93 2 14 13 17 16 
94 2 14 13 17 18 
95 2 14 15 16 17 
96 2 14 15 16 21 
97 2 14 15 27 23 
98 2 14 15 27 26 
99 2 13 17 16 15 
100 2 15 16 17 18 
101 2 15 16 21 20 
102 2 15 16 21 22 
103 1 16 15 27 23 
104 2 16 15 27 26 
105 2 16 17 18 19 
106 2 16 17 18 49 
107 2 16 21 22 23 
108 2 16 21 22 52 
109 2 9 14 13 17 
110 1 15 14 13 17 
111 1 17 16 21 20 
112 2 17 16 21 22 
113 2 17 18 19 20 
114 2 17 18 19 48 
115 2 17 18 49 47 
116 2 17 18 49 50 
117 2 18 19 20 21 
118 2 18 19 20 51 
119 2 18 19 48 43 
120 1 18 19 48 47 
121 2 2 50 49 18 
122 2 12 50 49 18 
123 1 19 18 49 47 
124 2 19 18 49 50 
125 2 16 21 20 19 
126 2 19 20 21 22 
127 2 19 20 51 42 
128 2 19 20 51 52 
129 2 20 19 48 43 
130 2 20 19 48 47 
131 2 20 21 22 23 
132 1 20 21 22 52 
133 1 20 51 52 22 
134 2 20 51 52 53 
135 2 13 17 16 21 
136 1 18 17 16 21 
137 2 21 20 51 42 
138 1 21 20 51 52 
139 2 21 22 23 24 
140 2 21 22 23 27 
141 1 21 22 52 51 
142 2 21 22 52 53 
143 2 22 23 24 25 
144 1 22 23 24 54 
145 2 15 27 23 22 
146 2 22 23 27 26 
147 2 22 52 53 54 
148 2 22 52 53 57 
149 2 23 22 52 51 
150 2 23 22 52 53 
151 2 23 24 25 26 
152 2 23 24 25 28 
153 1 23 24 54 53 
154 2 23 24 54 55 
155 2 15 27 23 24 
156 1 24 23 27 26 
157 2 8 26 25 24 
158 1 24 25 26 27 
159 1 24 25 28 29 
160 2 24 25 28 32 
161 2 24 54 55 29 
162 2 24 54 55 56 
163 2 25 24 54 53 
164 2 25 24 54 55 
165 2 15 27 26 25 
166 1 23 27 26 25 
167 2 25 28 29 30 
168 2 25 28 29 55 
169 2 7 32 28 25 
170 2 25 28 32 31 
171 2 10 9 8 26 
172 1 14 9 8 26 
173 2 26 25 28 29 
174 2 26 25 28 32 
175 2 17 16 15 27 
176 1 21 16 15 27 
177 2 25 24 23 27 
178 2 27 23 24 54 
179 2 8 26 25 28 
180 2 27 26 25 28 
181 2 28 29 30 31 
182 2 28 29 30 59 
183 2 28 29 55 54 
184 2 28 29 55 56 
185 2 7 32 28 29 
186 1 29 28 32 31 
187 2 29 30 31 32 
188 2 29 30 31 33 
189 2 29 30 59 58 
190 2 29 30 59 60 
191 2 29 55 56 57 
192 2 29 55 56 58 
193 2 30 29 55 54 
194 1 30 29 55 56 
195 2 7 32 31 30 
196 1 28 32 31 30 
197 2 5 33 31 30 
198 1 30 31 33 34 
199 2 30 59 60 34 
200 2 30 59 60 38 
201 2 31 30 59 58 
202 1 31 30 59 60 
203 2 31 33 34 35 
204 2 31 33 34 60 
205 2 9 8 7 32 
206 1 26 8 7 32 
207 1 30 29 28 32 
208 2 32 28 29 55 
209 2 5 33 31 32 
210 2 32 31 33 34 
211 2 7 6 5 33 
212 2 10 6 5 33 
213 2 7 32 31 33 
214 2 28 32 31 33 
215 2 4 35 34 33 
216 2 33 34 35 36 
217 2 33 34 60 38 
218 2 33 34 60 59 
219 2 1 36 35 34 
220 2 34 35 36 37 
221 2 6 5 4 35 
222 1 33 5 4 35 
223 1 35 34 60 38 
224 2 35 34 60 59 
225 2 35 36 37 38 
226 2 35 36 37 45 
227 2 3 2 1 36 
228 2 36 1 2 50 
229 1 36 1 46 45 
230 2 36 1 46 47 
231 2 36 37 38 39 
232 2 36 37 38 60 
233 2 36 37 45 44 
234 1 36 37 45 46 
235 2 37 38 39 40 
236 2 37 38 39 58 
237 2 34 60 38 37 
238 2 37 38 60 59 
239 1 1 46 45 37 
240 2 37 45 46 47 
241 2 38 37 45 44 
242 2 38 37 45 46 
243 2 38 39 40 41 
244 1 38 39 40 44 
245 2 38 39 58 56 
246 1 38 39 58 59 
247 2 34 60 38 39 
248 1 39 38 60 59 
249 2 39 40 41 42 
250 1 39 40 41 57 
251 2 39 40 44 43 
252 1 39 40 44 45 
253 2 30 59 58 39 
254 1 39 58 59 60 
255 2 40 39 58 56 
256 2 40 39 58 59 
257 2 40 41 42 43 
258 2 40 41 42 51 
259 2 40 41 57 53 
260 1 40 41 57 56 
261 2 37 45 44 40 
262 2 40 44 45 46 
263 2 41 40 44 43 
264 2 41 40 44 45 
265 2 41 42 43 44 
266 2 41 42 43 48 
267 2 20 51 42 41 
268 2 41 42 51 52 
269 2 42 41 57 53 
270 2 42 41 57 56 
271 2 40 44 43 42 
272 2 42 43 44 45 
273 2 19 48 43 42 
274 2 42 43 48 47 
275 2 22 52 51 42 
276 2 42 51 52 53 
277 1 20 51 42 43 
278 2 43 42 51 52 
279 2 37 45 44 43 
280 1 43 44 45 46 
281 2 42 41 40 44 
282 2 44 40 41 57 
283 2 19 48 43 44 
284 1 44 43 48 47 
285 2 1 46 45 44 
286 2 44 45 46 47 
287 1 39 38 37 45 
288 2 45 37 38 60 
289 1 45 46 47 48 
290 2 45 46 47 49 
291 2 3 2 1 46 
292 1 46 1 2 50 
293 2 35 36 1 46 
294 1 37 36 1 46 
295 2 19 48 47 46 
296 2 43 48 47 46 
297 2 18 49 47 46 
298 2 46 47 49 50 
299 1 2 50 49 47 
300 2 12 50 49 47 
301 2 21 20 19 48 
302 1 48 19 20 51 
303 2 40 44 43 48 
304 1 45 44 43 48 
305 1 18 49 47 48 
306 2 48 47 49 50 
307 2 20 19 18 49 
308 1 48 19 18 49 
309 1 19 48 47 49 
310 2 43 48 47 49 
311 2 4 3 2 50 
312 1 11 3 2 50 
313 2 14 13 12 50 
314 1 17 13 12 50 
315 2 16 21 20 51 
316 1 22 21 20 51 
317 2 44 43 42 51 
318 1 48 43 42 51 
319 2 51 52 53 54 
320 1 51 52 53 57 
321 1 24 23 22 52 
322 2 27 23 22 52 
323 2 24 54 53 52 
324 2 52 53 54 55 
325 2 41 57 53 52 
326 2 52 53 57 56 
327 2 29 55 54 53 
328 1 53 54 55 56 
329 2 26 25 24 54 
330 1 28 25 24 54 
331 2 41 57 53 54 
332 1 54 53 57 56 
333 1 54 55 56 57 
334 2 54 55 56 58 
335 2 31 30 29 55 
336 1 55 29 30 59 
337 2 41 57 56 55 
338 1 53 57 56 55 
339 2 39 58 56 55 
340 2 55 56 58 59 
341 2 30 59 58 56 
342 2 56 58 59 60 
343 2 43 42 41 57 
344 1 51 42 41 57 
345 2 24 54 53 57 
346 1 55 54 53 57 
347 1 39 58 56 57 
348 2 57 56 58 59 
349 2 41 40 39 58 
350 2 44 40 39 58 
351 2 41 57 56 58 
352 2 53 57 56 58 
353 2 34 60 59 58 
354 1 38 60 59 58 
355 2 32 31 30 59 
356 1 33 31 30 59 
357 2 4 35 34 60 
358 1 36 35 34 60 
359 2 40 39 38 60 
360 1 58 39 38 60 
