LAMMPS data file via write_data, version 2 Aug 2023, timestep = 20000, units = real

129 atoms
3 atom types
306 bonds
3 bond types
363 angles
3 angle types
720 dihedrals
2 dihedral types

-25 75 xlo xhi
-25 25 ylo yhi
-25 25 zlo zhi

Masses

1 12.011
2 1.008
3 15.9994

Pair Coeffs # lj/cut/coul/long

1 0.0734574 3.52053
2 0 0
3 0.119432 3.40025

Bond Coeffs # harmonic

1 399.904 1.39
2 0 0
3 442.161 0.972

Angle Coeffs # harmonic

1 55.1272 109.5
2 50.1166 120
3 47.5559 103

Dihedral Coeffs # harmonic

1 9.99044 -1 2
2 0 1 1

Atoms # full

60 1 1 0 52.48462671668325 -11.21830327940564 -4.911711317774176 -1 0 0
59 1 1 0 52.85877581783261 -11.813291862511338 -6.070548699746669 -1 0 0
55 1 1 0 54.84413490809372 -11.77614672162753 -7.93765626043388 -1 0 0
56 1 1 0 55.02858968722316 -12.506561232803387 -6.775520401007692 -1 0 0
58 1 1 0 54.074911283668925 -12.442329048212747 -5.798894215682039 -1 0 0
38 1 1 0 53.374164540457656 -11.560188615440007 -3.9157865870329167 -1 0 0
39 1 1 0 54.35689045482373 -12.320983874206819 -4.445054007070037 -1 0 0
57 1 1 0 56.36925071428175 -12.416075277730041 -6.425980368955364 -1 0 0
41 1 1 0 56.6910727857188 -12.257684006598623 -5.0593128790040085 -1 0 0
11 1 1 0 54.055579494065924 -6.073023690674063 -4.935850612041782 -1 0 0
10 1 1 0 53.749793415835356 -6.2788872017169215 -6.277381248718591 -1 0 0
6 1 1 0 52.78309184655291 -7.154204822813186 -6.696644731027158 -1 0 0
4 1 1 0 52.38815086352378 -7.748142873201231 -4.432760625149421 -1 0 0
5 1 1 0 52.01027325120627 -7.847338568368259 -5.805174059511039 -1 0 0
33 1 1 0 51.81727207574643 -9.194116566291731 -6.088642805291027 -1 0 0
34 1 1 0 52.012338732235165 -9.924076053374312 -4.9217663285897615 -1 0 0
35 1 1 0 52.33563643010726 -9.021708456756121 -3.946613541824067 -1 0 0
9 1 1 0 54.77703716737459 -6.392902141513071 -7.2316321901108696 -1 0 0
31 1 1 0 52.15749885976719 -9.869009703016586 -7.3206918621648445 -1 0 0
30 1 1 0 52.69844083558759 -11.127970038741813 -7.304366454104806 -1 0 0
28 1 1 0 53.81624371801239 -9.87827433807515 -8.847995255524749 -1 0 0
29 1 1 0 53.68581339742347 -11.109073138265332 -8.250775196884657 -1 0 0
7 1 1 0 53.11573726507521 -7.711390035464649 -7.951391207077041 -1 0 0
32 1 1 0 52.86722989265307 -9.08102814535603 -8.202930480793063 -1 0 0
25 1 1 0 55.0524327443554 -9.361323272821025 -9.129212599431588 -1 0 0
8 1 1 0 54.36589164054607 -7.24745163482286 -8.196165322293146 -1 0 0
26 1 1 0 55.30703040642334 -8.04687112497583 -8.790498501759943 -1 0 0
27 1 1 0 56.56923013257207 -8.027858855283162 -8.335928262564126 -1 0 0
24 1 1 0 56.252765596940804 -10.074074735381984 -8.868587457328852 -1 0 0
54 1 1 0 56.11457779796541 -11.278304322651364 -8.295328275938994 -1 0 0
14 1 1 0 56.06518402679734 -6.287542052310906 -6.765311885656953 -1 0 0
15 1 1 0 57.01795422320299 -7.045733840808035 -7.44686165123719 -1 0 0
13 1 1 0 56.44509424841917 -6.074693131672708 -5.4425890155116505 -1 0 0
3 1 1 0 53.37377210921214 -6.843593651925764 -4.023131595611607 -1 0 0
12 1 1 0 55.3921472469124 -6.068121335120308 -4.5481290368995335 -1 0 0
17 1 1 0 57.5740392791141 -6.795443112431778 -5.212161047251776 -1 0 0
23 1 1 0 57.22094589448949 -9.204795942939679 -8.451962885882645 -1 0 0
53 1 1 0 57.04220641241267 -11.6330121721457 -7.343876644726614 -1 0 0
22 1 1 0 58.13664524145432 -9.526973377220427 -7.454691330775705 -1 0 0
16 1 1 0 57.99794028040208 -7.337152346336735 -6.474339881439403 -1 0 0
52 1 1 0 58.01815967466543 -10.785063780333902 -6.923863910943926 -1 0 0
21 1 1 0 58.55524552928884 -8.632812430106862 -6.471707176798518 -1 0 0
42 1 1 0 57.700512162121896 -11.377785575282095 -4.646218109995495 -1 0 0
51 1 1 0 58.36036885604453 -10.65358277574453 -5.563176982390094 -1 0 0
20 1 1 0 58.65811398447944 -9.323122694858986 -5.2885763223897895 -1 0 0
40 1 1 0 55.65288748858184 -12.171638684979373 -4.113770983446357 -1 0 0
2 1 1 0 54.27663798626894 -7.2779377920305866 -3.005946584495507 -1 0 0
1 1 1 0 54.20885630367057 -8.556113523820652 -2.4905662374102593 -1 0 0
36 1 1 0 53.21777167948494 -9.406826452956764 -2.953751208889016 -1 0 0
49 1 1 0 56.70374765103399 -7.475318480211523 -3.1102747768285526 -1 0 0
50 1 1 0 55.5283610557872 -6.743769205032539 -3.3485870883605817 -1 0 0
47 1 1 0 56.634763846945475 -8.678894318790462 -2.5204360887530703 -1 0 0
46 1 1 0 55.394210141002844 -9.289934908078566 -2.250892055433462 -1 0 0
45 1 1 0 55.085112108775604 -10.615002157465256 -2.5322622665610908 -1 0 0
37 1 1 0 53.79099152040227 -10.632688093453869 -2.962977179321141 -1 0 0
44 1 1 0 56.028001237947734 -11.34916746167581 -3.1335836513353743 -1 0 0
18 1 1 0 57.73634948834972 -7.478829854772182 -4.01999313264316 -1 0 0
48 1 1 0 57.59764851238492 -9.516209641113603 -3.1028636605744935 -1 0 0
19 1 1 0 58.279790467977904 -8.80204005654113 -4.094853758622664 -1 0 0
43 1 1 0 57.276111649653544 -10.855253968772175 -3.410847605133589 -1 0 0
109 5 1 0 -10.241202577600802 6.140982848104177 3.667191350168564 1 0 0
110 5 1 0 -8.920325830958374 5.6076179016762 3.402454550975168 1 0 0
107 5 1 0 -11.742722792694188 8.20532112289972 3.6840813402223507 1 0 0
108 5 1 0 -10.811890678183968 7.265380280384939 2.9701881324132913 1 0 0
100 5 1 0 -8.90293290285512 11.196743447254354 3.215075465928713 1 0 0
129 5 1 0 -11.258586862754282 9.521816113479568 3.1718639541130833 1 0 0
128 5 1 0 -10.143624966576912 9.270912284165112 2.319152718921484 1 0 0
103 5 1 0 -11.160241328551923 10.648829682823296 4.067305875281849 1 0 0
102 5 1 0 -9.992648719299886 11.450905895267734 4.096764008271491 1 0 0
127 5 1 0 -9.816495127963313 7.898096286880785 2.1448880682861278 1 0 0
99 5 1 0 -9.000603524533876 10.124910747696976 2.313995566757024 1 0 0
125 5 1 0 -8.47019636321193 7.381541071817979 1.85592852941386 1 0 0
136 8 2 0.413 -10.31514755229363 8.589810450519101 5.845903634483968 1 0 0
126 5 1 0 -7.930722222359464 6.150272456065578 2.410571040824699 1 0 0
97 5 1 0 -6.72300793796553 10.485471929417136 2.906374398602147 1 0 0
98 5 1 0 -7.6386151315174695 9.666297889625483 2.1030319611538126 1 0 0
124 5 1 0 -7.32178583986361 8.283100591722304 1.824602834480502 1 0 0
122 5 1 0 -6.495653767338308 6.300455163639966 2.7606199678563756 1 0 0
123 5 1 0 -6.120426994630465 7.616386174844491 2.403115133775631 1 0 0
101 5 1 0 -7.5353896010118 11.368052388152513 3.6510789869899236 1 0 0
105 5 1 0 -12.034405602992518 9.187874881621315 6.001868164965069 1 0 0
104 5 1 0 -11.549035309037125 10.479485414287888 5.52628407930178 1 0 0
113 5 1 0 -10.563052528466223 5.960279250223411 5.015451955798648 1 0 0
114 5 1 0 -11.461247278982546 6.899035430744611 5.713615563341433 1 0 0
106 5 1 0 -12.065429465612258 8.026893573952385 5.085146361222839 1 0 0
138 8 2 0.413 -8.952509138819577 9.340493528058412 5.563129954084678 1 0 0
131 6 3 -0.826 -7.713147110808686 9.249837989548473 6.322388313174177 1 0 0
130 6 2 0.413 -7.021955527061331 9.142023027195997 6.995788521114142 1 0 0
112 5 1 0 -9.366450546030634 5.524377861872437 5.593587704217871 1 0 0
111 5 1 0 -8.390862224438203 5.249874591087438 4.673674767340274 1 0 0
115 5 1 0 -11.076519737031013 7.328511135457821 6.992857229317414 1 0 0
70 5 1 0 -11.415309938065576 8.68116609679624 7.216416028099523 1 0 0
73 5 1 0 -10.556626405887707 11.22936054239478 6.316700917586715 1 0 0
71 5 1 0 -10.423559728281367 9.457913041988453 7.933299301038701 1 0 0
72 5 1 0 -10.021258746003362 10.740554219993358 7.5615558367651365 1 0 0
119 5 1 0 -9.258146817156161 8.967264619209626 8.589682349555705 1 0 0
137 8 3 -0.826 -9.682441770950973 8.793186897939956 5.114277261611356 1 0 0
133 7 2 0.413 -8.644830374240993 7.982044715058789 4.4838558871313765 1 0 0
116 5 1 0 -9.861824946911327 6.809204550312652 7.560232269652727 1 0 0
117 5 1 0 -9.063054206319707 5.946346034961238 6.886516382318392 1 0 0
88 5 1 0 -7.755332349715506 6.154576671910551 7.316038592569549 1 0 0
132 6 2 0.413 -7.50848254529537 8.65645314796964 5.4863995998447725 1 0 0
118 5 1 0 -9.006749989095992 7.602178584828863 8.401852048141533 1 0 0
87 5 1 0 -7.665065569676329 7.1708952188578206 8.2944549374521 1 0 0
81 5 1 0 -8.144084556829856 9.940251754566171 8.787515300490467 1 0 0
79 5 1 0 -7.769634393097558 11.717903754086125 7.176776930192574 1 0 0
82 5 1 0 -6.728161072375725 9.50852214331856 8.711085686549108 1 0 0
80 5 1 0 -8.654057253235694 11.04519457253723 8.035742064712453 1 0 0
135 7 2 0.413 -7.4377760241758795 8.06870952856264 3.4928050605899226 1 0 0
120 5 1 0 -6.988700048396238 5.347738451882106 5.031771726862678 1 0 0
89 5 1 0 -6.720199594321237 5.873197181407784 6.3703561802918784 1 0 0
134 7 3 -0.826 -7.644435745058936 7.864680406401796 4.398818320970702 1 0 0
86 5 1 0 -6.55367558213935 8.061515652121686 8.429537864502652 1 0 0
78 5 1 0 -6.329097188809393 11.377763281991513 7.040889539163078 1 0 0
77 5 1 0 -6.10448979091439 11.346054272543824 5.586991876404594 1 0 0
85 5 1 0 -5.570818882168417 7.841972890360421 7.385438754789916 1 0 0
83 5 1 0 -5.806624951764233 10.215482190899534 7.8062842468274 1 0 0
84 5 1 0 -5.135160239808819 9.16085490880863 6.962568142608198 1 0 0
121 5 1 0 -6.028166807769556 5.91306967615896 4.132345221947771 1 0 0
90 5 1 0 -5.665615023638581 6.776771156496131 6.369097184763945 1 0 0
91 5 1 0 -5.251796561389797 6.801452707217623 5.0322308929629465 1 0 0
92 5 1 0 -4.881070386668645 8.090000361498452 4.588849779964412 1 0 0
94 5 1 0 -5.606378671356426 9.863486602465853 3.499928054765252 1 0 0
93 5 1 0 -5.259648094097239 8.497914424975225 3.247118646274397 1 0 0
95 5 1 0 -5.39571736243797 10.280378347410386 4.8647476177941 1 0 0
96 5 1 0 -4.862209559976165 9.167666170426097 5.562373215086569 1 0 0
74 5 1 0 -9.657318171714849 11.79652600735441 5.4121058605960695 1 0 0
75 5 1 0 -8.299625373591034 12.058889659283755 5.869779005461355 1 0 0
76 5 1 0 -7.254450432595502 11.792317666104026 4.952667544076946 1 0 0

Velocities

60 -0.009577531148673355 -0.0035259784344882344 0.006490582338775528
59 -0.01423757990457975 -0.0010410375077611377 -0.006793575396316882
55 -0.01110922019109076 -0.005641118544886641 -0.0004147773367478408
56 -0.00912869084771668 -0.0022201767190732176 -0.0021077289599372587
58 -0.006331892189389659 -0.00986895715628204 -0.00837838805974544
38 -0.01684076030277093 0.008664846665876707 -0.010068482588572979
39 -0.011834490619210816 -0.0020501696587858125 0.0004241013621518108
57 -0.01837411923438403 0.006639768322226214 -0.002427519191895229
41 -0.006085133793459613 -0.004918181518321288 0.0040881680594999385
11 0.0005613203228538328 0.0011131858487702267 -0.0004753641046607642
10 0.0020471248553984647 0.0006461267326920552 0.003819193922578308
6 -0.006493832305085366 0.0020716677797327156 0.004532739389495096
4 -0.003830995691380634 -0.0006503657798431046 -0.0026750371169861793
5 -0.00732130363298428 -0.010130180754401944 0.0005466111596694812
33 -0.0036902805316807075 0.00471492980601644 -0.0002264620415856235
34 -0.008698271622331532 -0.008290046765137988 -0.005355297828358911
35 -0.009627470786881039 0.00349501229352477 -0.0020508420515398594
9 -0.014038187987879897 -0.008775150399536436 -0.006522788226391466
31 -0.015032135925539682 -0.0098020496051008 -0.002381313860971347
30 -0.013400749677526877 -0.010729683703771715 -0.005071142389716146
28 -0.015816109344120418 -0.0022284640190270437 -0.002120693484797184
29 -0.006459688505560679 -0.0015647137722735595 -0.007398729796583805
7 -0.00998954486139204 -0.0004741690642556964 -0.0030955234493696662
32 -0.0029244327779358796 -0.0030295106133563783 -0.0034137482436840394
25 -0.002787803316190971 -0.002786878152567588 -0.0014507735769453767
8 -0.006412953261383102 0.003390782043360649 -0.006811424972829468
26 -0.008751154521092106 -0.006020229998797596 -0.0004260548992111933
27 -0.009362123561937033 0.0012159212527000905 0.0005029468103064211
24 -0.012606008212862736 -0.008161679626595964 -0.0011785732953984926
54 -0.013894816273743955 0.00135181721992422 -0.010834104265917195
14 -0.010977485608870569 0.0007863063418075208 0.0010077864789117344
15 -0.013104461345137541 -0.003038448455256143 -0.0034820691682306303
13 -0.002609633673880056 -0.0001260535594139073 -0.0016720154401591053
3 -0.004367097824893252 -0.002301864849283424 -0.006606747059608551
12 0.003248186439797611 0.0011642738313015143 -0.0018561096248073373
17 -0.009957889930577305 -0.0008307510767530857 0.0012409004861214414
23 -0.00762016577745709 -0.005781178476072963 -0.0027228838725976527
53 -0.017741702933936565 -0.0030185991651563784 -0.0002496671152237609
22 -0.008179566535763372 -0.004899154741905792 -0.0031827278790522184
16 -0.0044879943571048235 -0.005863890615380697 -0.011518228991487925
52 -0.011868885461668938 -0.003379569419607845 -0.004082370865072496
21 -0.0068022864461360424 -0.0029773625217926146 -0.003361328094230049
42 -0.012450105433396898 -0.005819158440983856 -0.0018363763109418153
51 -0.005464288616424362 -0.0024591091217671455 0.007433557932929731
20 -0.011827212305926127 0.0016247700831395439 -0.006726084685824312
40 -0.004983167536891482 -0.0033555038515428316 0.0026758630570435484
2 0.0011523691359508939 -4.2256598805364224e-05 0.0014443761761814484
1 -0.002425354516622312 -0.008571645732681384 -0.004282089953995213
36 -0.01293022888440804 -0.0010134588873762203 0.005254434789995036
49 -0.003724764757309361 -6.279241453516066e-05 0.003909924114056711
50 -0.005622925825821589 -0.0010743438209041274 0.0034042317322165493
47 0.0035807679457002676 -0.002363283879054667 0.0011462134446815263
46 -0.003813089978159457 0.000843415492252937 0.004276703117021365
45 0.0035632204452463096 -0.0043651467017331675 -0.0019703506047340333
37 -0.007296545118968762 0.004579053100102922 -0.0014969509324641666
44 -0.012136859329446416 0.0008956187712630096 -0.0011087607620679663
18 -0.006099586807709188 0.001936017057760894 0.014169359106731297
48 -0.010520213058241204 -0.0036559952360618944 -0.0003152540380320673
19 -0.009796863918745614 0.000583696771808634 0.0016645014145824527
43 -0.004700214942814125 -0.005235013738408973 -0.0004432368842608261
109 0.008334140300163752 0.00928917321269567 0.006689874641084153
110 -0.0004367486140036741 -0.007409682101410303 0.0036411203468517265
107 0.005047528460036333 0.002698059148866617 0.0035210812014186397
108 0.0031490360837604886 0.0019335024924249928 0.0005272283159241561
100 0.008114086355765998 0.007133334787931165 -0.0003140125798313215
129 0.0005727051069070094 0.005944933114642808 0.006835699650481081
128 0.006344846959291605 0.0011029790163972716 0.0024509196618174123
103 0.0026365865192441744 0.003934254895944237 -0.00313188100014712
102 0.0038886913392310635 0.006937177743562459 0.009411199379037652
127 0.006838505488602522 0.006018226335070237 0.009541042551942972
99 0.0017237394193014078 -0.00014827605739602145 -0.0013061228502552092
125 0.00832089483504881 0.0008489338334571101 0.007188238784541696
136 0.004278105649638089 0.0052052970435284675 0.030395271023589666
126 0.007284654444951499 -0.005329556815137213 -0.0066367679015117195
97 0.006391277247518911 -0.004810410850686541 0.0033052080806658547
98 0.004405164553225559 -0.002029792652759108 0.0027725239281576664
124 0.0024770212243590264 -0.0032373547647205933 0.00047909417948824404
122 0.009059228225678192 0.0060800594601183085 0.0017914127652898636
123 0.009606411002307857 -0.0008451796220259273 0.00417313291579779
101 -0.0024812493067515947 0.002093249070347623 0.003921548765936874
105 -0.0030526920656355635 0.007908486080014118 0.0013341434640553478
104 -0.0038131295125412063 -0.0003175219279924621 -0.00023986045227216012
113 0.013688784841922753 0.006833561669981607 0.004328988611630752
114 0.009417033182655245 0.0029050528957694083 0.002909691874980177
106 0.00363540774154312 0.008169331473382807 0.0038332173966119953
138 0.0074258563998653385 -0.007374363392659483 -2.724010481817491e-05
131 0.009445303195440624 0.0023527483253972564 -0.004511068318289528
130 0.01678567948509731 -0.008621110997731642 -0.010446449457574157
112 0.01717301766897163 -0.0018700645493262649 -0.009997018936871974
111 0.0027067667564779525 0.003854157481567004 -0.0023751330194488416
115 0.007917803444597912 0.003972571282661953 0.00655563551199344
70 0.006649246350043779 0.007912671233363032 0.005620913220454653
73 0.009299133639636739 0.0031316804867967596 0.002500677584338273
71 0.008393119519430219 0.008036128318622993 0.003077258780747043
72 0.009452581683021736 0.0016281997125299436 -0.005311836664132807
119 0.001782224611232308 0.0044178767472291105 0.0014335985896167444
137 0.008308065585696486 -0.00018636313847622478 0.008704425196652047
133 0.002002162831367179 0.009365587677735812 0.019808614804981802
116 0.003786748710252586 -0.0032300736741695496 -0.005964036371054491
117 0.011036002149881463 0.0014518679709107454 0.00651056141387708
88 0.00548475000388713 0.006392961131722299 0.0065084341797786265
132 0.013389520402285703 -0.006077669074832868 -0.007715535961195828
118 0.013772362770116816 -0.0038243237507992953 -0.005240195516679012
87 0.0027847919265559413 0.0003283717885631152 -0.003126697078744018
81 0.009933514296534248 -0.005413832685428244 0.001062051543626659
79 0.01124169973630194 0.0082693002153782 0.0006014910389679173
82 0.007222703539461964 0.005057755255772036 0.0007180966317783288
80 0.010515233789227179 -0.0019813723052748344 0.0024456951892987203
135 -0.008926023913969254 -0.009393842667714127 0.01537575947966107
120 0.010045150709612854 0.0060722437599809815 0.0051858342042759775
89 0.0038378262606130194 -0.0009225905087864527 -0.005605814623988954
134 0.0015429756581258243 -0.00028598238071001386 0.002162791848007922
86 0.00987141454480996 -0.0023121153409778276 -0.0025743087959921966
78 0.006271538261103949 0.003313791912330333 -0.0010901431651086885
77 0.006222530356913666 0.002018742480488928 0.001060146242783138
85 0.008388544140708207 0.002335209055020314 9.319257057270047e-05
83 0.01227199997356609 0.0069698000766878375 -0.006620180928995112
84 0.012652999929479396 0.0023653632296410437 -0.006464848583719272
121 0.0071309987286721065 -0.008536168677483353 0.0006972374636327917
90 0.0022846799197653467 -0.0016836234256058934 -0.001586523807067795
91 0.0009694892361436432 -0.002729501792462296 2.419422597301178e-05
92 0.011954372569397199 0.003572232257387436 0.0022155404092493998
94 0.010468585845797927 -0.0015690282418926416 0.00011630135286404103
93 0.010812254331046024 0.0020737350571679728 -0.0024083342306932603
95 0.006857758376978129 -9.590529434320547e-05 -0.0006040883234219064
96 0.0027077965064168812 0.007505570722283404 0.0003465551690171576
74 0.00786508271141529 -0.00047564704921023804 0.0021644075233882175
75 0.010470593569690158 -0.0007377229385780684 0.0053556640161286
76 0.006990901215673007 0.002321736675192783 -0.0013863251636258248

Bonds

1 1 59 60
2 1 55 56
3 2 55 59
4 1 56 57
5 1 56 58
6 1 58 59
7 1 38 39
8 1 38 60
9 2 38 44
10 1 39 40
11 1 39 58
12 2 39 45
13 2 39 57
14 1 41 42
15 1 41 57
16 2 41 52
17 2 41 58
18 1 11 12
19 2 11 14
20 1 10 11
21 2 10 13
22 1 6 7
23 1 6 10
24 2 6 31
25 1 4 5
26 1 4 35
27 2 4 10
28 1 5 6
29 1 5 33
30 2 5 11
31 2 5 32
32 1 33 34
33 2 33 59
34 1 34 35
35 1 34 60
36 2 34 37
37 1 35 36
38 2 35 38
39 1 9 10
40 1 9 14
41 2 9 12
42 2 9 27
43 1 31 32
44 1 31 33
45 2 31 60
46 1 30 31
47 1 30 59
48 2 30 34
49 2 30 56
50 1 28 29
51 1 28 32
52 2 28 54
53 1 29 30
54 1 29 55
55 2 29 58
56 1 7 8
57 1 7 32
58 2 7 25
59 2 7 33
60 1 25 26
61 1 25 28
62 2 25 55
63 1 8 9
64 1 8 26
65 2 8 15
66 2 8 28
67 1 26 27
68 2 26 32
69 1 24 25
70 1 24 54
71 2 24 29
72 2 24 52
73 1 54 55
74 1 14 15
75 2 14 26
76 1 15 16
77 1 15 27
78 2 15 22
79 1 13 14
80 1 13 17
81 2 13 49
82 1 3 4
83 1 3 11
84 2 3 6
85 2 3 36
86 1 12 13
87 1 12 50
88 2 12 18
89 1 17 18
90 2 17 20
91 2 17 50
92 1 23 24
93 1 23 27
94 2 23 53
95 1 53 54
96 1 53 57
97 1 22 23
98 1 22 52
99 2 22 54
100 1 16 17
101 1 16 21
102 2 16 19
103 2 16 23
104 1 52 53
105 1 21 22
106 2 21 27
107 1 42 43
108 1 42 51
109 2 42 53
110 1 51 52
111 2 51 57
112 1 20 21
113 1 20 51
114 2 20 43
115 1 40 41
116 1 40 44
117 2 40 56
118 1 2 3
119 1 2 50
120 2 2 35
121 2 2 47
122 1 1 2
123 1 1 36
124 1 1 46
125 2 1 4
126 2 1 49
127 1 36 37
128 2 36 60
129 1 49 50
130 1 47 48
131 1 47 49
132 1 46 47
133 2 46 50
134 1 45 46
135 2 45 48
136 1 37 38
137 1 37 45
138 2 37 40
139 1 44 45
140 2 44 47
141 1 18 19
142 1 18 49
143 2 18 21
144 2 48 51
145 1 19 20
146 1 19 48
147 2 19 42
148 1 43 44
149 1 43 48
150 2 43 46
151 1 109 110
152 1 109 113
153 2 109 125
154 1 110 111
155 1 110 126
156 2 110 121
157 2 110 127
158 1 107 108
159 1 107 129
160 2 107 113
161 1 108 109
162 1 108 127
163 2 108 114
164 2 108 126
165 1 100 101
166 1 100 102
167 2 100 129
168 1 128 129
169 1 103 104
170 1 103 129
171 2 103 106
172 1 102 103
173 2 102 128
174 1 127 128
175 1 99 100
176 1 99 128
177 2 99 103
178 2 99 125
179 1 125 126
180 1 125 127
181 3 136 137
182 1 97 98
183 1 97 101
184 2 97 123
185 1 98 99
186 1 98 124
187 2 98 127
188 1 124 125
189 2 124 128
190 1 122 123
191 1 122 126
192 1 123 124
193 1 105 106
194 2 105 129
195 1 104 105
196 2 104 107
197 1 113 114
198 2 113 116
199 1 114 115
200 2 114 117
201 1 106 107
202 1 106 114
203 2 106 109
204 3 131 132
205 3 130 131
206 1 112 113
207 1 112 117
208 2 112 115
209 1 111 112
210 1 111 120
211 2 111 122
212 1 115 116
213 2 115 119
214 1 70 71
215 1 70 105
216 1 70 115
217 2 70 73
218 2 70 118
219 1 73 74
220 1 73 104
221 2 73 79
222 1 71 72
223 1 71 119
224 2 71 104
225 2 71 116
226 1 72 73
227 1 72 80
228 2 72 75
229 2 72 105
230 3 137 138
231 3 133 134
232 1 116 117
233 1 116 118
234 2 117 120
235 1 88 89
236 1 88 117
237 2 88 111
238 1 118 119
239 1 87 88
240 1 87 118
241 2 87 90
242 1 81 82
243 1 81 119
244 2 81 87
245 1 79 80
246 2 79 82
247 1 82 83
248 1 82 86
249 2 82 118
250 1 80 81
251 2 80 83
252 1 120 121
253 2 120 126
254 1 89 90
255 1 89 120
256 2 89 112
257 3 134 135
258 1 86 87
259 2 86 89
260 2 86 119
261 1 78 79
262 1 78 83
263 2 78 81
264 2 78 96
265 1 77 78
266 1 77 95
267 2 77 84
268 2 77 97
269 1 85 86
270 1 85 90
271 2 85 88
272 2 85 92
273 1 83 84
274 2 83 95
275 1 84 85
276 1 84 96
277 2 84 91
278 1 121 122
279 1 90 91
280 2 90 96
281 1 91 92
282 1 91 121
283 2 91 123
284 1 92 93
285 1 92 96
286 2 92 122
287 1 94 95
288 1 94 97
289 2 94 124
290 1 93 94
291 1 93 123
292 2 93 98
293 2 93 121
294 1 95 96
295 2 95 101
296 1 74 75
297 1 74 102
298 2 74 80
299 2 74 101
300 1 75 76
301 1 75 79
302 2 75 100
303 1 76 77
304 1 76 101
305 2 76 94
306 2 76 102

Angles

1 2 34 60 38
2 2 34 60 59
3 1 38 60 59
4 2 30 59 58
5 2 30 59 60
6 1 58 59 60
7 2 29 55 54
8 2 29 55 56
9 1 54 55 56
10 1 55 56 57
11 2 55 56 58
12 2 57 56 58
13 2 39 58 56
14 1 39 58 59
15 2 56 58 59
16 2 37 38 39
17 2 37 38 60
18 1 39 38 60
19 2 38 39 40
20 1 38 39 58
21 2 40 39 58
22 2 41 57 53
23 2 41 57 56
24 1 53 57 56
25 1 40 41 42
26 2 40 41 57
27 2 42 41 57
28 2 3 11 10
29 1 3 11 12
30 2 10 11 12
31 1 6 10 9
32 2 6 10 11
33 2 9 10 11
34 2 5 6 7
35 2 5 6 10
36 1 7 6 10
37 2 3 4 5
38 2 3 4 35
39 1 5 4 35
40 2 4 5 6
41 1 4 5 33
42 2 6 5 33
43 2 5 33 31
44 1 5 33 34
45 2 31 33 34
46 1 33 34 35
47 2 33 34 60
48 2 35 34 60
49 1 4 35 34
50 2 4 35 36
51 2 34 35 36
52 1 8 9 10
53 2 8 9 14
54 2 10 9 14
55 1 30 31 32
56 2 30 31 33
57 2 32 31 33
58 1 29 30 31
59 2 29 30 59
60 2 31 30 59
61 2 25 28 29
62 2 25 28 32
63 1 29 28 32
64 1 28 29 30
65 2 28 29 55
66 2 30 29 55
67 1 6 7 8
68 2 6 7 32
69 2 8 7 32
70 2 7 32 28
71 2 7 32 31
72 1 28 32 31
73 1 24 25 26
74 2 24 25 28
75 2 26 25 28
76 1 7 8 9
77 2 7 8 26
78 2 9 8 26
79 2 8 26 25
80 2 8 26 27
81 1 25 26 27
82 2 15 27 23
83 2 15 27 26
84 1 23 27 26
85 1 23 24 25
86 2 23 24 54
87 2 25 24 54
88 2 24 54 53
89 2 24 54 55
90 1 53 54 55
91 2 9 14 13
92 2 9 14 15
93 1 13 14 15
94 1 14 15 16
95 2 14 15 27
96 2 16 15 27
97 2 12 13 14
98 2 12 13 17
99 1 14 13 17
100 2 2 3 4
101 1 2 3 11
102 2 4 3 11
103 2 11 12 13
104 1 11 12 50
105 2 13 12 50
106 1 13 17 16
107 2 13 17 18
108 2 16 17 18
109 2 22 23 24
110 2 22 23 27
111 1 24 23 27
112 2 52 53 54
113 2 52 53 57
114 1 54 53 57
115 2 21 22 23
116 1 21 22 52
117 2 23 22 52
118 1 15 16 17
119 2 15 16 21
120 2 17 16 21
121 1 22 52 51
122 2 22 52 53
123 2 51 52 53
124 2 16 21 20
125 2 16 21 22
126 1 20 21 22
127 1 41 42 43
128 2 41 42 51
129 2 43 42 51
130 2 20 51 42
131 1 20 51 52
132 2 42 51 52
133 2 19 20 21
134 2 19 20 51
135 1 21 20 51
136 2 39 40 41
137 2 39 40 44
138 1 41 40 44
139 2 1 2 3
140 2 1 2 50
141 1 3 2 50
142 2 2 1 36
143 2 2 1 46
144 1 36 1 46
145 2 1 36 35
146 1 1 36 37
147 2 35 36 37
148 1 18 49 47
149 2 18 49 50
150 2 47 49 50
151 1 2 50 12
152 2 2 50 49
153 2 12 50 49
154 2 46 47 48
155 2 46 47 49
156 1 48 47 49
157 1 1 46 45
158 2 1 46 47
159 2 45 46 47
160 2 37 45 44
161 1 37 45 46
162 2 44 45 46
163 2 36 37 38
164 1 36 37 45
165 2 38 37 45
166 1 40 44 43
167 2 40 44 45
168 2 43 44 45
169 2 17 18 19
170 2 17 18 49
171 1 19 18 49
172 2 19 48 43
173 1 19 48 47
174 2 43 48 47
175 2 18 19 20
176 1 18 19 48
177 2 20 19 48
178 1 42 43 44
179 2 42 43 48
180 2 44 43 48
181 2 108 109 110
182 2 108 109 113
183 1 110 109 113
184 1 109 110 111
185 2 109 110 126
186 2 111 110 126
187 2 106 107 108
188 2 106 107 129
189 1 108 107 129
190 2 107 108 109
191 1 107 108 127
192 2 109 108 127
193 1 99 100 101
194 2 99 100 102
195 2 101 100 102
196 2 103 129 107
197 2 103 129 128
198 1 107 129 128
199 2 99 128 127
200 2 99 128 129
201 1 127 128 129
202 1 102 103 104
203 2 102 103 129
204 2 104 103 129
205 2 74 102 100
206 1 74 102 103
207 2 100 102 103
208 2 108 127 125
209 1 108 127 128
210 2 125 127 128
211 1 98 99 100
212 2 98 99 128
213 2 100 99 128
214 1 124 125 126
215 2 124 125 127
216 2 126 125 127
217 2 110 126 122
218 2 110 126 125
219 1 122 126 125
220 2 94 97 98
221 2 94 97 101
222 1 98 97 101
223 1 97 98 99
224 2 97 98 124
225 2 99 98 124
226 2 98 124 123
227 2 98 124 125
228 1 123 124 125
229 2 121 122 123
230 2 121 122 126
231 1 123 122 126
232 2 93 123 122
233 2 93 123 124
234 1 122 123 124
235 2 76 101 97
236 2 76 101 100
237 1 97 101 100
238 2 70 105 104
239 1 70 105 106
240 2 104 105 106
241 1 73 104 103
242 2 73 104 105
243 2 103 104 105
244 1 109 113 112
245 2 109 113 114
246 2 112 113 114
247 2 106 114 113
248 1 106 114 115
249 2 113 114 115
250 2 105 106 107
251 1 105 106 114
252 2 107 106 114
253 3 130 131 132
254 1 111 112 113
255 2 111 112 117
256 2 113 112 117
257 1 110 111 112
258 2 110 111 120
259 2 112 111 120
260 1 70 115 114
261 2 70 115 116
262 2 114 115 116
263 2 71 70 105
264 2 71 70 115
265 1 105 70 115
266 2 72 73 74
267 2 72 73 104
268 1 74 73 104
269 2 70 71 72
270 2 70 71 119
271 1 72 71 119
272 2 71 72 73
273 1 71 72 80
274 2 73 72 80
275 1 71 119 81
276 2 71 119 118
277 2 81 119 118
278 3 136 137 138
279 2 115 116 117
280 2 115 116 118
281 1 117 116 118
282 2 88 117 112
283 1 88 117 116
284 2 112 117 116
285 2 87 88 89
286 1 87 88 117
287 2 89 88 117
288 1 87 118 116
289 2 87 118 119
290 2 116 118 119
291 2 86 87 88
292 2 86 87 118
293 1 88 87 118
294 2 80 81 82
295 1 80 81 119
296 2 82 81 119
297 1 75 79 78
298 2 75 79 80
299 2 78 79 80
300 2 81 82 83
301 2 81 82 86
302 1 83 82 86
303 2 72 80 79
304 1 72 80 81
305 2 79 80 81
306 2 89 120 111
307 1 89 120 121
308 2 111 120 121
309 2 88 89 90
310 2 88 89 120
311 1 90 89 120
312 3 133 134 135
313 1 82 86 85
314 2 82 86 87
315 2 85 86 87
316 1 77 78 79
317 2 77 78 83
318 2 79 78 83
319 1 76 77 78
320 2 76 77 95
321 2 78 77 95
322 1 84 85 86
323 2 84 85 90
324 2 86 85 90
325 2 78 83 82
326 2 78 83 84
327 1 82 83 84
328 1 83 84 85
329 2 83 84 96
330 2 85 84 96
331 1 91 121 120
332 2 91 121 122
333 2 120 121 122
334 2 85 90 89
335 2 85 90 91
336 1 89 90 91
337 2 90 91 92
338 1 90 91 121
339 2 92 91 121
340 2 91 92 93
341 2 91 92 96
342 1 93 92 96
343 1 93 94 95
344 2 93 94 97
345 2 95 94 97
346 1 92 93 94
347 2 92 93 123
348 2 94 93 123
349 2 77 95 94
350 2 77 95 96
351 1 94 95 96
352 2 84 96 92
353 2 84 96 95
354 1 92 96 95
355 2 73 74 75
356 1 73 74 102
357 2 75 74 102
358 2 74 75 76
359 2 74 75 79
360 1 76 75 79
361 1 75 76 77
362 2 75 76 101
363 2 77 76 101

Dihedrals

1 2 34 60 38 37
2 2 34 60 38 39
3 2 34 60 59 58
4 1 38 60 59 58
5 2 30 59 60 34
6 2 30 59 60 38
7 2 30 59 58 39
8 2 30 59 58 56
9 2 29 55 56 57
10 2 29 55 56 58
11 2 29 55 54 53
12 1 54 55 56 57
13 2 54 55 56 58
14 2 55 56 58 59
15 2 57 56 58 59
16 1 39 58 59 60
17 2 39 58 56 55
18 2 56 58 59 60
19 1 39 58 56 57
20 2 37 38 39 40
21 2 37 38 39 58
22 2 37 38 60 59
23 1 39 38 60 59
24 1 39 38 37 45
25 2 38 39 40 41
26 1 38 39 40 44
27 2 38 39 58 56
28 1 38 39 58 59
29 2 40 39 58 56
30 2 40 39 58 59
31 2 40 39 38 60
32 1 58 39 38 60
33 2 41 57 53 52
34 2 41 57 53 54
35 2 41 57 56 55
36 1 53 57 56 55
37 2 41 57 56 58
38 2 53 57 56 58
39 2 40 41 42 43
40 2 40 41 42 51
41 2 40 41 57 53
42 1 40 41 57 56
43 2 42 41 57 53
44 2 42 41 57 56
45 2 42 41 40 44
46 2 3 11 12 13
47 1 3 11 12 50
48 1 3 11 10 6
49 2 3 11 10 9
50 2 10 11 12 13
51 2 10 11 12 50
52 2 6 10 11 12
53 2 6 10 9 8
54 2 9 10 11 12
55 2 6 10 9 14
56 1 11 10 9 14
57 2 5 6 7 8
58 1 5 6 7 32
59 2 5 6 10 9
60 1 5 6 10 11
61 2 7 6 10 9
62 2 7 6 10 11
63 2 10 6 7 32
64 2 7 6 5 33
65 2 10 6 5 33
66 2 3 4 5 6
67 2 3 4 5 33
68 2 3 4 35 34
69 1 3 4 35 36
70 2 5 4 35 34
71 2 5 4 35 36
72 2 5 4 3 11
73 2 4 5 6 7
74 1 4 5 6 10
75 2 4 5 33 31
76 1 4 5 33 34
77 2 6 5 33 31
78 2 6 5 33 34
79 2 6 5 4 35
80 1 33 5 4 35
81 1 5 33 34 35
82 2 5 33 34 60
83 2 5 33 31 30
84 2 31 33 34 35
85 2 31 33 34 60
86 2 5 33 31 32
87 2 33 34 35 36
88 2 33 34 60 38
89 2 33 34 60 59
90 1 35 34 60 38
91 2 35 34 60 59
92 2 4 35 36 37
93 2 4 35 34 33
94 2 34 35 36 37
95 2 4 35 34 60
96 1 36 35 34 60
97 2 8 9 10 11
98 2 8 9 14 13
99 2 8 9 14 15
100 1 10 9 14 13
101 2 10 9 14 15
102 2 10 9 8 26
103 1 14 9 8 26
104 1 30 31 33 34
105 2 32 31 33 34
106 2 32 31 30 59
107 1 33 31 30 59
108 2 29 30 31 32
109 2 29 30 31 33
110 2 29 30 59 58
111 2 29 30 59 60
112 2 31 30 59 58
113 1 31 30 59 60
114 2 31 30 29 55
115 2 25 28 29 30
116 2 25 28 29 55
117 2 25 28 32 31
118 1 29 28 32 31
119 2 32 28 29 55
120 2 28 29 30 31
121 2 28 29 30 59
122 2 28 29 55 54
123 2 28 29 55 56
124 2 30 29 55 54
125 1 30 29 55 56