LAMMPS data file via write_data, version 29 Sep 2021, timestep = 55000

72 atoms
2 atom types
120 bonds
9 bond types
144 angles
2 angle types
240 dihedrals
2 dihedral types
48 impropers
1 improper types

-25 25 xlo xhi
-25 25 ylo yhi
-25 25 zlo zhi

Masses

1 1.008
2 12.011

Pair Coeffs # lj/cut/coul/long

1 0.0282937 2.37341
2 0.0734574 3.52053

Bond Coeffs # harmonic

1 349.274 1.09
2 450.906 1.36
3 399.904 1.39
4 400.057 1.4
5 349.928 1.1
6 262.906 1.45
7 155.354 1.42
8 16.7304 1.44
9 0 0

Angle Coeffs # harmonic

1 45.1871 120
2 50.1166 120

Dihedral Coeffs # harmonic

1 9.99044 -1 2
2 0 1 1

Improper Coeffs # harmonic

1 20.0075 0

Atoms # full

31 1 2 -0.102 -5.359222696654498 -1.1294307473893155 -0.7040424129622987 0 0 0
32 1 1 0.136 -6.439387703339461 -1.2052230238006512 -0.7645429280877933 0 0 0
30 1 1 0.134 -6.130128393634613 -3.8493203653125767 -0.5483377503436033 0 0 0
70 1 2 -0.03 -0.3664314795649165 -5.1248942076152115 0.2444980911206441 0 0 0
1 1 1 0.134 -4.428936567312007 -5.640514459709899 -0.278200170852992 0 0 0
2 1 2 -0.113 -4.093788364898599 -4.613812455292048 -0.2822124384445181 0 0 0
29 1 2 -0.113 -5.0378891608404865 -3.61415659981774 -0.44794134315674233 0 0 0
71 1 2 -0.102 -1.6799702165892452 -5.4043087528754965 0.054772346446890954 0 0 0
72 1 1 0.136 -2.100561746118074 -6.383985003273762 0.316957226641484 0 0 0
64 1 1 0.136 4.514093328149703 -5.117764252884896 0.1627023949203487 0 0 0
68 1 2 -0.113 0.7370711455034403 -6.063824352148575 -0.06909593251826701 0 0 0
67 1 1 0.134 2.734764844840046 -6.5536950899854105 0.18588177384411456 0 0 0
66 1 2 -0.113 2.0705548989704194 -5.707662541129331 0.008417025186465983 0 0 0
69 1 1 0.134 0.5224905289251305 -7.126880095807072 -0.3834679264781495 0 0 0
7 1 2 -0.018 0.05577712560462347 -3.8056838896508993 0.4238167754975919 0 0 0
63 1 2 -0.102 3.8309420370664298 -4.288941528078189 0.21838741305081721 0 0 0
65 1 2 -0.03 2.4891819236032457 -4.530589079862036 0.26002864883658855 0 0 0
61 1 1 0.134 6.486624307943148 -3.3221048108867937 0.08387243991322435 0 0 0
38 1 2 -0.03 -4.241353311803214 2.82838678091773 -0.013816562261362983 0 0 0
33 1 2 -0.03 -4.897776074463794 0.13577329805948335 -0.6809543426367212 0 0 0
36 1 2 -0.113 -5.44145774364164 2.605301317940247 -0.5427348873017951 0 0 0
37 1 1 0.134 -6.154444984896867 3.4519114741618795 -0.590098811130487 0 0 0
34 1 2 -0.113 -5.817284348951777 1.3368936585650406 -0.939764769390264 0 0 0
35 1 1 0.134 -6.847001723971245 1.0850635280694758 -1.3591102749050006 0 0 0
39 1 2 -0.102 -3.898141175383853 4.194131961363186 0.2731525484411934 0 0 0
40 1 1 0.136 -4.592098780016426 5.0143581333601475 0.4281137551658746 0 0 0
42 1 2 -0.113 -2.136424249650157 5.9640890097263055 0.19573448708356922 0 0 0
43 1 1 0.134 -2.9529738889922026 6.735739786058006 0.10106754084316368 0 0 0
45 1 1 0.134 -0.5253902812308159 7.3978827295644045 0.37121082642719516 0 0 0
44 1 2 -0.113 -0.8300748579694821 6.261715234471959 0.11339039153480868 0 0 0
41 1 2 -0.03 -2.540592530425782 4.48906503358154 0.3802551827158909 0 0 0
50 1 2 -0.113 3.9109421150128827 4.6549742007816235 -0.5740857890002139 0 0 0
47 1 2 -0.102 1.6700079101252212 5.328851344816991 -0.1810490206021519 0 0 0
48 1 1 0.136 1.9959744457262978 6.441183628169104 -0.29648292418606215 0 0 0
49 1 2 -0.03 2.6009576835962696 4.346699647473577 -0.2008178174156365 0 0 0
51 1 1 0.134 4.204107602698596 5.700968562936685 -0.8915330954214514 0 0 0
52 1 2 -0.113 4.82305021474344 3.650694053876794 -0.7154914194601093 0 0 0
53 1 1 0.134 5.709752122652657 3.837277433528887 -1.2468144211638985 0 0 0
56 1 1 0.136 6.474261072389001 1.5610371109170444 -0.2895092946038073 0 0 0
46 1 2 -0.03 0.31494979030890496 5.072773988438711 0.11295219986905797 0 0 0
6 1 1 0.132 -0.6064741307902336 -1.8312793119111064 0.8893865243016286 0 0 0
5 1 2 -0.112 -0.8583458967175258 -2.7708163262682417 0.41385697961945556 0 0 0
28 1 2 -0.03 -4.583627062799419 -2.2587964912606293 -0.3902533175206472 0 0 0
3 1 2 -0.03 -2.625518630309735 -4.326940342623186 -0.055425882605121525 0 0 0
27 1 2 -0.018 -3.1744150065941565 -1.9976269238426883 -0.1319061017014054 0 0 0
25 1 2 -0.112 -2.788697015232839 -0.6577547405320872 -0.16176575388147188 0 0 0
4 1 2 -0.018 -2.2281558195754343 -3.0580281430137632 0.06208046976709518 0 0 0
26 1 1 0.132 -1.8134509653367021 -0.453962853583663 0.2656355383931171 0 0 0
8 1 2 -0.018 1.523419622739196 -3.519096032050298 0.4755138576431962 0 0 0
10 1 1 0.132 1.2605599064244413 -1.4436225487967742 0.48973199693265845 0 0 0
60 1 2 -0.113 5.732670195274196 -2.571467574290258 0.10676516576942645 0 0 0
59 1 1 0.134 7.208858223117162 -1.0002453839701138 -0.1265704520765237 0 0 0
62 1 2 -0.03 4.29391055309556 -2.9686986152197687 0.33205029109953793 0 0 0
9 1 2 -0.112 1.9525255537267798 -2.2383776139606355 0.4920889382486455 0 0 0
12 1 2 -0.018 3.6572792546720567 -0.4551135619809098 0.1919277275092098 0 0 0
11 1 2 -0.018 3.255754201353025 -1.895468142297954 0.411558931067831 0 0 0
57 1 2 -0.03 5.003709557568282 -0.1542423775545916 -0.06306081999661046 0 0 0
58 1 2 -0.113 6.163313054865672 -1.292056975103182 -0.0194761372980734 0 0 0
24 1 2 -0.018 -3.6041084768266973 0.4071945436583863 -0.38851177462411735 0 0 0
23 1 2 -0.018 -3.2950233847240624 1.808463167796087 0.040594953233226844 0 0 0
21 1 2 -0.112 -1.9789611195461574 2.097508504331721 0.26380056655273887 0 0 0
22 1 1 0.132 -1.2199252904620754 1.2620971624105026 0.43431809198944793 0 0 0
19 1 2 -0.018 -0.06586279402585275 3.801032876629132 0.2902734329814057 0 0 0
20 1 2 -0.018 -1.5199518651768333 3.449727411446753 0.40384921172953375 0 0 0
54 1 2 -0.03 4.4620984531582035 2.2571654998370954 -0.2552001302018032 0 0 0
15 1 2 -0.018 3.2051903938313973 1.9701446065495227 0.14454919602115512 0 0 0
55 1 2 -0.102 5.39093681110978 1.2197675641286183 -0.25536703652540005 0 0 0
17 1 2 -0.112 0.9005316716830851 2.8057444809970233 0.45942010553307117 0 0 0
14 1 1 0.132 1.7443342123564132 0.417593208483243 0.5088671877696352 0 0 0
13 1 2 -0.112 2.784930470767479 0.6365660430631411 0.36772902593489515 0 0 0
18 1 1 0.132 0.6771569462904149 2.047802958414916 1.2008772081733805 0 0 0
16 1 2 -0.018 2.2641415348088136 3.027512738595741 0.2219315425001982 0 0 0

Velocities

31 0.0067554049848739944 0.0021633390855370937 0.0004514964733921024
32 0.0273486766476172 0.014578545675933469 -0.0036841422488981673
30 0.008842163877559189 -0.006883289467754655 0.0033107959864657555
70 -0.004843056510224957 0.009391534924681446 0.0018811866279913486
1 0.01029365032251003 0.02154304281895036 -0.02765351205112659
2 -0.0009381689615278797 -0.0037008663721870864 0.00847903314005195
29 0.005537921013140893 -0.002749681168832598 0.002863888735116494
71 -0.004554393232759381 0.004353607466272742 -0.00020392305672143872
72 -0.012576452240449329 0.001353123487153846 0.01871603653169092
64 0.0018157142416944207 -0.016968933064198288 -0.011449968042825285
68 0.0028248121484161295 -0.005302897809362326 -0.004242744335935362
67 0.03701079054835914 0.012833890418065215 -0.012518296546917385
66 0.0021319279562384994 -0.007902305246751319 -8.849801749122337e-05
69 0.002731274746823644 -0.01751152990918006 0.029695134114156713
7 0.003350613869916397 -0.007141790232232751 -0.0038736251300868067
63 0.0025951141035354293 -0.0034234200269364873 0.0015362215300090693
65 -0.008311239324327084 -0.0024336634821482722 -0.0019934707506830316
61 0.006272240480074241 0.0023094663456868524 -0.012389970745372033
38 0.006391977833225347 0.007984970566261964 -0.0002817693853916398
33 0.0012935385070103583 0.007563081051312289 -0.002678714320395888
36 0.0004910943039622063 -0.004177152057364029 -0.003755966374464854
37 -0.019858684558300577 0.009850833374614655 -0.002622770902509038
34 -0.0032458704581345465 0.0012799665647383128 0.006054424544277074
35 -0.0070086761525008584 0.008603866716410056 -0.016748387692727178
39 0.004818277152226694 0.001627876913780183 0.0020577946823504404
40 -0.014620248721747707 0.00015934369187629058 0.01345288202807688
42 -0.0009792630147038184 -0.002583617777659671 -0.0011473427772403372
43 0.019452766275253254 -0.013176187175059518 0.006164326585475055
45 -0.0299286811425345 0.0021105644008711255 0.01031480483303927
44 0.0014860566190501153 0.005917685795921339 0.0032338357748455697
41 -0.002746462389507249 0.001931129542984727 -0.004968639816276562
50 0.005387389609236166 -0.006099950851803 0.0031366957570726313
47 -0.01381122758379869 -0.009828963179040405 0.003910801732054028
48 -0.0029498617908441634 -0.029237025886336844 0.000492916961413235
49 0.0024563837609698205 -0.006321702524513592 0.008335599900809766
51 0.011702374222878564 0.018988531811946572 -0.0036462041001587347
52 0.0004323893074335111 0.004635768579628801 -0.006022512500588463
53 0.0035222217064451223 -0.025784556783968075 0.02625779719525564
56 -0.0003932425079049 0.008400507317080627 -0.0036126776818752268
46 0.006028909069612542 -0.0006576714026742328 0.0010457104233171418
6 -0.014623332309069259 0.03580625733932295 0.00924579679524415
5 -0.00946825640181329 -0.005963569975324262 -0.002480567566611312
28 -0.0012148427836974427 -0.0018803935062019993 -0.0030892152429959703
3 -0.0006825238533907984 0.0028721531102306667 0.004588310116700373
27 0.0009983030017546163 0.00164541985600018 0.0032228817986149736
25 0.005951575134334098 -0.002648519483351892 0.0033877374866959045
4 0.002250076153255551 -0.0034957633120384353 -0.003193723218304068
26 0.010100053679781645 0.003391080047005707 0.022428374562311143
8 -0.0038467203260368235 0.012300769087495967 -0.0066578645123212135
10 0.002056826021054625 0.018501710851154485 -0.04263669187147687
60 -0.005307330604011495 0.005035021019539362 0.0034476792967782803
59 -0.001964862321074614 -0.0036601486499151276 0.02885576974990315
62 0.003892505179357214 -0.0009057086300583357 -0.005497383035179457
9 0.00016630443437390247 0.005237707988937566 -0.002974070122182434
12 -0.004800750035645044 1.8205692231308166e-05 0.0015896805391182602
11 0.0010215278095391056 -0.003559938808962261 0.007282460898201032
57 -0.0016889452010938472 0.008515003032106797 0.006646884427871937
58 0.00881097748105609 0.001302340229068957 0.0025949650988778845
24 0.005829302302414274 0.0035049257623783214 0.002407605289666199
23 -0.0035088153351276108 -0.010181828201804724 -0.004222544928274973
21 0.0010830112447316779 0.003600196688218457 0.0024052794754619174
22 -0.0014464522246390805 0.0008672364363631796 -0.020172862129791396
19 -0.0019125136830727878 -0.0026347427496267897 -0.0030201362243511914
20 0.0002851492620076694 -0.003038590986769209 -0.0004016762557299847
54 -0.006290514821431295 -0.0034676631175723917 -0.0006895715922825937
15 -0.008544116601567366 -0.00759019369966695 -0.005940088496873453
55 0.0004590819686832372 0.006743015618784139 -0.0007763715993656238
17 -0.0018720226570199307 0.0010384011266141074 -0.005698001837834601
14 -0.0010707045045765392 0.0054777266787091276 0.005306590403906296
13 0.002900550401827368 0.001971026381479611 -0.0027458831714251724
18 0.013154957789392985 0.016366734192760454 -0.0019854378821419303
16 -0.0010799098102700798 0.001357327213805462 -0.005184811806628182

Bonds

1 5 31 32
2 4 31 33
3 4 70 71
4 5 1 2
5 8 2 3
6 2 2 29
7 9 2 27
8 5 29 30
9 5 71 72
10 5 68 69
11 8 68 70
12 5 66 67
13 2 66 68
14 6 7 8
15 7 7 70
16 9 7 66
17 5 63 64
18 4 63 65
19 8 65 66
20 9 65 70
21 4 38 39
22 8 33 34
23 9 33 38
24 5 36 37
25 8 36 38
26 5 34 35
27 2 34 36
28 5 39 40
29 4 39 41
30 5 42 43
31 2 42 44
32 5 44 45
33 8 44 46
34 8 41 42
35 9 41 46
36 5 50 51
37 2 50 52
38 5 47 48
39 4 47 49
40 8 49 50
41 9 49 54
42 5 52 53
43 8 52 54
44 4 46 47
45 1 5 6
46 3 5 7
47 9 5 71
48 8 28 29
49 4 28 31
50 7 3 4
51 4 3 71
52 9 3 7
53 9 3 28
54 7 27 28
55 9 27 33
56 1 25 26
57 3 25 27
58 9 25 31
59 3 4 5
60 6 4 27
61 9 4 29
62 9 4 70
63 3 8 9
64 7 8 65
65 9 8 62
66 9 8 68
67 5 60 61
68 8 60 62
69 4 62 63
70 1 9 10
71 3 9 11
72 9 9 63
73 3 12 13
74 7 12 57
75 9 12 54
76 9 12 60
77 6 11 12
78 7 11 62
79 9 11 58
80 9 11 65
81 8 57 58
82 9 57 62
83 5 58 59
84 2 58 60
85 3 24 25
86 7 24 33
87 9 24 28
88 9 24 36
89 6 23 24
90 7 23 38
91 9 23 34
92 9 23 41
93 1 21 22
94 3 21 23
95 9 21 39
96 6 19 20
97 7 19 46
98 9 19 42
99 9 19 49
100 3 20 21
101 7 20 41
102 9 20 38
103 9 20 44
104 4 54 55
105 6 15 16
106 7 15 54
107 9 15 50
108 9 15 57
109 5 55 56
110 4 55 57
111 1 17 18
112 3 17 19
113 9 17 47
114 1 13 14
115 3 13 15
116 9 13 55
117 3 16 17
118 7 16 49
119 9 16 46
120 9 16 52

Angles

1 1 28 31 32
2 2 28 31 33
3 1 32 31 33
4 2 7 70 68
5 2 7 70 71
6 2 68 70 71
7 1 1 2 3
8 1 1 2 29
9 2 3 2 29
10 2 2 29 28
11 1 2 29 30
12 1 28 29 30
13 2 3 71 70
14 1 3 71 72
15 1 70 71 72
16 1 66 68 69
17 2 66 68 70
18 1 69 68 70
19 1 65 66 67
20 2 65 66 68
21 1 67 66 68
22 2 5 7 8
23 2 5 7 70
24 2 8 7 70
25 1 62 63 64
26 2 62 63 65
27 1 64 63 65
28 2 8 65 63
29 2 8 65 66
30 2 63 65 66
31 2 23 38 36
32 2 23 38 39
33 2 36 38 39
34 2 24 33 31
35 2 24 33 34
36 2 31 33 34
37 1 34 36 37
38 2 34 36 38
39 1 37 36 38
40 1 33 34 35
41 2 33 34 36
42 1 35 34 36
43 1 38 39 40
44 2 38 39 41
45 1 40 39 41
46 1 41 42 43
47 2 41 42 44
48 1 43 42 44
49 1 42 44 45
50 2 42 44 46
51 1 45 44 46
52 2 20 41 39
53 2 20 41 42
54 2 39 41 42
55 1 49 50 51
56 2 49 50 52
57 1 51 50 52
58 1 46 47 48
59 2 46 47 49
60 1 48 47 49
61 2 16 49 47
62 2 16 49 50
63 2 47 49 50
64 1 50 52 53
65 2 50 52 54
66 1 53 52 54
67 2 19 46 44
68 2 19 46 47
69 2 44 46 47
70 1 4 5 6
71 2 4 5 7
72 1 6 5 7
73 2 27 28 29
74 2 27 28 31
75 2 29 28 31
76 2 2 3 4
77 2 2 3 71
78 2 4 3 71
79 2 4 27 25
80 2 4 27 28
81 2 25 27 28
82 1 24 25 26
83 2 24 25 27
84 1 26 25 27
85 2 3 4 5
86 2 3 4 27
87 2 5 4 27
88 2 7 8 9
89 2 7 8 65
90 2 9 8 65
91 1 58 60 61
92 2 58 60 62
93 1 61 60 62
94 2 11 62 60
95 2 11 62 63
96 2 60 62 63
97 1 8 9 10
98 2 8 9 11
99 1 10 9 11
100 2 11 12 13
101 2 11 12 57
102 2 13 12 57
103 2 9 11 12
104 2 9 11 62
105 2 12 11 62
106 2 12 57 55
107 2 12 57 58
108 2 55 57 58
109 1 57 58 59
110 2 57 58 60
111 1 59 58 60
112 2 23 24 25
113 2 23 24 33
114 2 25 24 33
115 2 21 23 24
116 2 21 23 38
117 2 24 23 38
118 1 20 21 22
119 2 20 21 23
120 1 22 21 23
121 2 17 19 20
122 2 17 19 46
123 2 20 19 46
124 2 19 20 21
125 2 19 20 41
126 2 21 20 41
127 2 15 54 52
128 2 15 54 55
129 2 52 54 55
130 2 13 15 16
131 2 13 15 54
132 2 16 15 54
133 1 54 55 56
134 2 54 55 57
135 1 56 55 57
136 1 16 17 18
137 2 16 17 19
138 1 18 17 19
139 1 12 13 14
140 2 12 13 15
141 1 14 13 15
142 2 15 16 17
143 2 15 16 49
144 2 17 16 49

Dihedrals

1 2 28 31 33 34
2 2 32 31 33 34
3 2 7 70 71 72
4 1 7 70 68 66
5 2 68 70 71 72
6 2 7 70 68 69
7 2 1 2 3 4
8 2 1 2 3 71
9 2 1 2 29 28
10 2 1 2 29 30
11 1 3 2 29 28
12 2 3 2 29 30
13 2 29 2 3 71
14 1 2 29 28 27
15 2 2 29 28 31
16 2 30 29 28 31
17 1 3 71 70 7
18 2 3 71 70 68
19 2 66 68 70 71
20 2 69 68 70 71
21 2 65 66 68 69
22 1 65 66 68 70
23 2 67 66 68 69
24 2 67 66 68 70
25 2 5 7 8 9
26 2 5 7 8 65
27 2 5 7 70 68
28 1 5 7 70 71
29 2 8 7 70 68
30 2 8 7 70 71
31 2 62 63 65 66
32 2 64 63 65 66
33 2 8 65 66 67
34 1 8 65 66 68
35 1 8 65 63 62
36 2 63 65 66 67
37 2 63 65 66 68
38 2 8 65 63 64
39 2 23 38 39 40
40 1 23 38 39 41
41 1 23 38 36 34
42 2 36 38 39 40
43 2 36 38 39 41
44 2 23 38 36 37
45 2 24 33 34 35
46 1 24 33 34 36
47 1 24 33 31 28
48 2 31 33 34 35
49 2 31 33 34 36
50 2 24 33 31 32
51 2 34 36 38 39
52 2 37 36 38 39
53 2 33 34 36 37
54 1 33 34 36 38
55 2 35 34 36 37
56 2 35 34 36 38
57 2 38 39 41 42
58 2 40 39 41 42
59 2 41 42 44 45
60 1 41 42 44 46
61 2 43 42 44 45
62 2 43 42 44 46
63 2 42 44 46 47
64 2 45 44 46 47
65 2 20 41 42 43
66 1 20 41 42 44
67 1 20 41 39 38
68 2 39 41 42 43
69 2 39 41 42 44
70 2 20 41 39 40
71 2 49 50 52 53
72 1 49 50 52 54
73 2 51 50 52 53
74 2 51 50 52 54
75 2 46 47 49 50
76 2 48 47 49 50
77 2 16 49 50 51
78 1 16 49 50 52
79 1 16 49 47 46
80 2 47 49 50 51
81 2 47 49 50 52
82 2 16 49 47 48
83 2 50 52 54 55
84 2 53 52 54 55
85 2 19 46 47 48
86 1 19 46 47 49
87 1 19 46 44 42
88 2 44 46 47 48
89 2 44 46 47 49
90 2 19 46 44 45
91 2 4 5 7 8
92 1 4 5 7 70
93 2 6 5 7 8
94 2 6 5 7 70
95 2 6 5 4 27
96 2 7 5 4 27
97 2 27 28 29 30
98 2 27 28 31 32
99 1 27 28 31 33
100 2 29 28 31 32
101 2 29 28 31 33
102 2 2 3 4 5
103 1 2 3 4 27
104 2 2 3 71 70
105 2 2 3 71 72
106 1 4 3 71 70
107 2 4 3 71 72
108 1 4 3 2 29
109 1 4 27 28 29
110 2 4 27 28 31
111 2 4 27 25 24
112 2 25 27 28 29
113 2 25 27 28 31
114 2 4 27 25 26
115 1 24 25 27 28
116 2 26 25 27 28
117 2 26 25 24 33
118 1 27 25 24 33
119 2 3 4 5 6
120 1 3 4 5 7
121 2 3 4 27 25
122 1 3 4 27 28
123 2 5 4 27 25
124 2 5 4 27 28
125 2 5 4 3 71
126 2 27 4 3 71
127 2 7 8 9 10
128 2 7 8 9 11
129 2 7 8 65 63
130 1 7 8 65 66
131 2 9 8 65 63
132 2 9 8 65 66
133 2 9 8 7 70
134 1 65 8 7 70
135 2 58 60 62 63
136 2 61 60 62 63
137 2 11 62 63 64
138 1 11 62 63 65
139 1 11 62 60 58
140 2 60 62 63 64
141 2 60 62 63 65
142 2 11 62 60 61
143 2 8 9 11 12
144 1 8 9 11 62
145 2 10 9 11 12
146 2 10 9 11 62
147 2 10 9 8 65
148 1 11 9 8 65
149 2 11 12 13 14
150 2 11 12 13 15
151 2 11 12 57 55
152 2 11 12 57 58
153 1 13 12 57 55
154 2 13 12 57 58
155 2 13 12 11 62
156 1 57 12 11 62
157 2 9 11 12 13
158 2 9 11 12 57
159 2 9 11 62 60
160 2 9 11 62 63
161 1 12 11 62 60
162 2 12 11 62 63
163 2 12 57 58 59
164 1 12 57 58 60
165 1 12 57 55 54
166 2 55 57 58 59
167 2 55 57 58 60
168 2 12 57 55 56
169 2 57 58 60 61
170 1 57 58 60 62
171 2 59 58 60 61
172 2 59 58 60 62
173 2 23 24 25 26
174 2 23 24 25 27
175 2 23 24 33 31
176 2 23 24 33 34
177 1 25 24 33 31
178 2 25 24 33 34
179 2 25 24 23 38
180 1 33 24 23 38
181 2 21 23 24 25
182 2 21 23 24 33
183 2 21 23 38 36
184 2 21 23 38 39
185 1 24 23 38 36
186 2 24 23 38 39
187 2 20 21 23 24
188 1 20 21 23 38
189 2 22 21 23 24
190 2 22 21 23 38
191 2 22 21 20 41
192 1 23 21 20 41
193 2 17 19 20 21
194 2 17 19 20 41
195 2 17 19 46 44
196 2 17 19 46 47
197 1 20 19 46 44
198 2 20 19 46 47
199 2 19 20 21 22
200 2 19 20 21 23
201 2 19 20 41 39
202 1 19 20 41 42
203 2 21 20 41 39
204 2 21 20 41 42
205 2 21 20 19 46
206 1 41 20 19 46
207 2 15 54 55 56
208 1 15 54 55 57
209 1 15 54 52 50
210 2 52 54 55 56
211 2 52 54 55 57
212 2 15 54 52 53
213 2 13 15 16 17
214 2 13 15 16 49
215 2 13 15 54 52
216 2 13 15 54 55
217 1 16 15 54 52
218 2 16 15 54 55
219 2 54 55 57 58
220 2 56 55 57 58
221 2 16 17 19 20
222 1 16 17 19 46
223 2 18 17 19 20
224 2 18 17 19 46
225 2 18 17 16 49
226 1 19 17 16 49
227 2 12 13 15 16
228 1 12 13 15 54
229 2 14 13 15 16
230 2 14 13 15 54
231 2 14 13 12 57
232 1 15 13 12 57
233 2 15 16 17 18
234 2 15 16 17 19
235 2 15 16 49 47
236 2 15 16 49 50
237 1 17 16 49 47
238 2 17 16 49 50
239 2 17 16 15 54
240 1 49 16 15 54

Impropers

1 1 2 1 3 29
2 1 3 2 4 71
3 1 29 2 28 30
4 1 68 66 69 70
5 1 8 7 9 65
6 1 70 7 68 71
7 1 66 65 67 68
8 1 39 38 40 41
9 1 34 33 35 36
10 1 36 34 37 38
11 1 44 42 45 46
12 1 42 41 43 44
13 1 52 50 53 54
14 1 50 49 51 52
15 1 47 46 48 49
16 1 7 5 8 70
17 1 31 28 32 33
18 1 4 3 5 27
19 1 71 3 70 72
20 1 28 27 29 31
21 1 5 4 6 7
22 1 27 4 25 28
23 1 9 8 10 11
24 1 65 8 63 66
25 1 63 62 64 65
26 1 11 9 12 62
27 1 13 12 14 15
28 1 57 12 55 58
29 1 12 11 13 57
30 1 62 11 60 63
31 1 58 57 59 60
32 1 60 58 61 62
33 1 25 24 26 27
34 1 33 24 31 34
35 1 24 23 25 33
36 1 38 23 36 39
37 1 23 21 24 38
38 1 20 19 21 41
39 1 46 19 44 47
40 1 21 20 22 23
41 1 41 20 39 42
42 1 55 54 56 57
43 1 16 15 17 49
44 1 54 15 52 55
45 1 19 17 20 46
46 1 15 13 16 54
47 1 17 16 18 19
48 1 49 16 47 50
